          ******************************************************
          *         GAMESS VERSION =  1 MAY 2013 (R1)          *
          *             FROM IOWA STATE UNIVERSITY             *
          * M.W.SCHMIDT, K.K.BALDRIDGE, J.A.BOATZ, S.T.ELBERT, *
          *   M.S.GORDON, J.H.JENSEN, S.KOSEKI, N.MATSUNAGA,   *
          *          K.A.NGUYEN, S.J.SU, T.L.WINDUS,           *
          *       TOGETHER WITH M.DUPUIS, J.A.MONTGOMERY       *
          *         J.COMPUT.CHEM.  14, 1347-1363(1993)        *
          *************** 64 BIT WINDOWS VERSION ***************

  SINCE 1993, STUDENTS AND POSTDOCS WORKING AT IOWA STATE UNIVERSITY
  AND ALSO IN THEIR VARIOUS JOBS AFTER LEAVING ISU HAVE MADE IMPORTANT
  CONTRIBUTIONS TO THE CODE:
     IVANA ADAMOVIC, CHRISTINE AIKENS, YURI ALEXEEV, POOJA ARORA,
     ANDREY ASADCHEV, ROB BELL, PRADIPTA BANDYOPADHYAY, JONATHAN BENTZ,
     BRETT BODE, GALINA CHABAN, WEI CHEN, CHEOL HO CHOI, PAUL DAY,
     ALBERT DEFUSCO, TIM DUDLEY, DMITRI FEDOROV, GRAHAM FLETCHER,
     MARK FREITAG, KURT GLAESEMANN, DAN KEMP, GRANT MERRILL,
     NORIYUKI MINEZAWA, JONATHAN MULLIN, TAKESHI NAGATA,
     SEAN NEDD, HEATHER NETZLOFF, BOSILJKA NJEGIC, RYAN OLSON, MIKE PAK,
     JIM SHOEMAKER, LYUDMILA SLIPCHENKO, SAROM SOK, JIE SONG,
     TETSUYA TAKETSUGU, SIMON WEBB, SOOHAENG YOO, FEDERICO ZAHARIEV

  ADDITIONAL CODE HAS BEEN PROVIDED BY COLLABORATORS IN OTHER GROUPS:
     IOWA STATE UNIVERSITY:
          JOE IVANIC, LAIMUTIS BYTAUTAS, KLAUS RUEDENBERG
     UNIVERSITY OF TOKYO: KIMIHIKO HIRAO, TAKAHITO NAKAJIMA,
          TAKAO TSUNEDA, MUNEAKI KAMIYA, SUSUMU YANAGISAWA,
          KIYOSHI YAGI, MAHITO CHIBA, SEIKEN TOKURA, NAOAKI KAWAKAMI
     UNIVERSITY OF AARHUS: FRANK JENSEN
     UNIVERSITY OF IOWA: VISVALDAS KAIRYS, HUI LI
     NATIONAL INST. OF STANDARDS AND TECHNOLOGY: WALT STEVENS, DAVID GARMER
     UNIVERSITY OF PISA: BENEDETTA MENNUCCI, JACOPO TOMASI
     UNIVERSITY OF MEMPHIS: HENRY KURTZ, PRAKASHAN KORAMBATH
     UNIVERSITY OF ALBERTA: TOBY ZENG, MARIUSZ KLOBUKOWSKI
     UNIVERSITY OF NEW ENGLAND: MARK SPACKMAN
     MIE UNIVERSITY: HIROAKI UMEDA
     MICHIGAN STATE UNIVERSITY:
          KAROL KOWALSKI, MARTA WLOCH, JEFFREY GOUR, JESSE LUTZ,
          WEI LI, PIOTR PIECUCH
     UNIVERSITY OF SILESIA: MONIKA MUSIAL, STANISLAW KUCHARSKI
     FACULTES UNIVERSITAIRES NOTRE-DAME DE LA PAIX:
          OLIVIER QUINET, BENOIT CHAMPAGNE
     UNIVERSITY OF CALIFORNIA - SANTA BARBARA: BERNARD KIRTMAN
     INSTITUTE FOR MOLECULAR SCIENCE:
          KAZUYA ISHIMURA, MICHIO KATOUDA, AND SHIGERU NAGASE
     UNIVERSITY OF NOTRE DAME: DAN CHIPMAN
     KYUSHU UNIVERSITY:
          HARUYUKI NAKANO,
          FENG LONG GU, JACEK KORCHOWIEC, MARCIN MAKOWSKI, AND YURIKO AOKI,
          HIROTOSHI MORI AND EISAKU MIYOSHI
     PENNSYLVANIA STATE UNIVERSITY:
          TZVETELIN IORDANOV, CHET SWALINA, JONATHAN SKONE,
          SHARON HAMMES-SCHIFFER
     WASEDA UNIVERSITY:
          MASATO KOBAYASHI, TOMOKO AKAMA, TSUGUKI TOUMA,
          TAKESHI YOSHIKAWA, YASUHIRO IKABATA, HIROMI NAKAI
     NANJING UNIVERSITY: SHUHUA LI
     UNIVERSITY OF NEBRASKA:
          PEIFENG SU, DEJUN SI, NANDUN THELLAMUREGE, YALI WANG, HUI LI
     UNIVERSITY OF ZURICH:
          ROBERTO PEVERATI, KIM BALDRIDGE
     N. COPERNICUS UNIVERSITY AND JACKSON STATE UNIVERSITY:
          MARIA BARYSZ


 PARALLEL VERSION RUNNING ON     4 PROCESSORS IN     4 NODES.

 EXECUTION OF GAMESS BEGUN Mon Oct 16 17:18:24 2017

            ECHO OF THE FIRST FEW INPUT CARDS -
 INPUT CARD>! Внимание - это расчет в базисе STO-3G надо задать свой базис!!!               
 INPUT CARD> $CONTRL                                                                        
 INPUT CARD> runtyp=sadpoint                                                                
 INPUT CARD>! runtyp=hessian                                                                
 INPUT CARD> UNITS=ANGS                                                                     
 INPUT CARD> mplevl=2                                                                       
 INPUT CARD>! exetyp=check                                                                  
 INPUT CARD> ispher=1                                                                       
 INPUT CARD> $END                                                                           
 INPUT CARD> $basis gbasis=cct $end                                                         
 INPUT CARD> $statpt nstep=100 hssend=.t.  ifolow=1                                         
 INPUT CARD> hess=calc                                                                      
 INPUT CARD>! ihrep=3                                                                       
 INPUT CARD> $end                                                                           
 INPUT CARD> $system TIMLIM=9000                                                            
 INPUT CARD> mwords=80 memddi=20 $end                                                       
 INPUT CARD> $DATA                                                                          
 INPUT CARD>                                                                                
 INPUT CARD> c1                                                                             
 INPUT CARD> C           6.0   0.2724176279  -1.4172797775  -0.2909748845                   
 INPUT CARD> C           6.0   0.1935919963  -0.2742858816   0.4173627717                   
 INPUT CARD> C           6.0  -1.0125608063   0.6233895891   0.3688602036                   
 INPUT CARD> O           8.0  -1.1271340507   1.5584969922  -0.4058344138                   
 INPUT CARD> H           1.0   1.1648447849  -2.0488567021  -0.2503118293                   
 INPUT CARD> H           1.0  -0.5512999831  -1.7461566256  -0.9339384364                   
 INPUT CARD> H           1.0   1.0245493111   0.0449338876   1.0601172153                   
 INPUT CARD> H           1.0  -1.8215836713   0.3844174753   1.1059428632                   
 INPUT CARD> $end                                                                           
 INPUT CARD> H           1.0  -1.9709232082   2.3727166926  -0.2340665552                   
 INPUT CARD> H           1.0  -0.2559020003   2.1426243502  -0.8371569346                   
 INPUT CARD> $HESS                                                                          
 INPUT CARD>ENERGY IS     -190.7440233590 E(NUC) IS      100.7616762966                     
 INPUT CARD> 1  1 6.45278621E-01-1.10307946E-01 1.50901089E-01-1.18735014E-01 4.05524476E-02
 INPUT CARD> 1  2 2.09317674E-03 6.60398911E-03 2.64567624E-02 1.67684250E-02-4.02358192E-03
 INPUT CARD> 1  3 4.63737436E-03-3.25060635E-03-2.82306325E-01 1.45828217E-01-1.56762967E-02
 INPUT CARD> 1  4-2.50399281E-01-7.78054412E-02-1.30070250E-01 6.69625605E-03-2.79492586E-02
 INPUT CARD> 1  5-1.75618026E-02-3.11453894E-03-1.41308102E-03-3.20345365E-03               
 INPUT CARD> 2  1-1.10307946E-01 8.34550718E-01 3.60716388E-01 3.04356446E-02-5.58111568E-01
 INPUT CARD> 2  2-2.74769267E-01 3.74745014E-03-1.86245989E-02-9.71621954E-03 1.51759314E-03
 INPUT CARD> 2  3 3.15527265E-03 6.74542579E-04 1.51473904E-01-1.55818240E-01-2.20290812E-03
 INPUT CARD> 2  4-8.16648998E-02-1.00738608E-01-6.69713858E-02 4.06896685E-03-4.93131123E-03
 INPUT CARD> 2  5-7.69426390E-03 7.28427076E-04 5.19914384E-04-3.59342456E-05               
 INPUT CARD> 3  1 1.50901089E-01 3.60716388E-01 4.05156540E-01-5.48455807E-03-2.76519541E-01
 INPUT CARD> 3  2-2.16604245E-01 1.03940861E-03 3.98420305E-04 7.08601760E-03-2.11770725E-03
 INPUT CARD> 3  3 1.80818624E-03-9.24921183E-04-1.14484575E-02-4.03981495E-03-5.22281969E-02
 INPUT CARD> 3  4-1.32657213E-01-6.38176863E-02-1.40941315E-01 1.15944922E-03-1.94370879E-02
 INPUT CARD> 3  5-1.62682273E-03-1.39205176E-03 8.91707504E-04 8.31933719E-05               
 INPUT CARD> 4  1-1.18735014E-01 3.04356446E-02-5.48455807E-03 5.73705717E-01-5.16480778E-02
 INPUT CARD> 4  2 1.25976601E-01-2.15541587E-01 5.40824640E-02 3.57022802E-03 1.34607127E-02
 INPUT CARD> 4  3 1.26489719E-02-2.71839786E-03 3.90094587E-03 2.79604782E-02 1.63531001E-02
   80000000 WORDS OF MEMORY AVAILABLE

     BASIS OPTIONS
     -------------
     GBASIS=CCT          IGAUSS=       0      POLAR=NONE    
     NDFUNC=       0     NFFUNC=       0     DIFFSP=       F
     NPFUNC=       0      DIFFS=       F     BASNAM=        


     RUN TITLE
     ---------
                                                                                 

 THE POINT GROUP OF THE MOLECULE IS C1      
 THE ORDER OF THE PRINCIPAL AXIS IS     0

 ATOM      ATOMIC                      COORDINATES (BOHR)
           CHARGE         X                   Y                   Z
 C           6.0     0.5147946710       -2.6782704274       -0.5498628010
 C           6.0     0.3658358264       -0.5183251585        0.7887012760
 C           6.0    -1.9134624698        1.1780355070        0.6970447126
 O           8.0    -2.1299745073        2.9451322679       -0.7669158385
 H           1.0     2.2012374617       -3.8717777551       -0.4730207689
 H           1.0    -1.0418059051       -3.2997575540       -1.7648877342
 H           1.0     1.9361174589        0.0849127351        2.0033310518
 H           1.0    -3.4422940025        0.7264436932        2.0899289695

          INTERNUCLEAR DISTANCES (ANGS.)
          ------------------------------

                1 C          2 C          3 C          4 O          5 H     

   1 C       0.0000000    1.3469932 *  2.5001767 *  3.2904688    1.0940608 *
   2 C       1.3469932 *  0.0000000    1.5043199 *  2.4043843 *  2.1303105 *
   3 C       2.5001767 *  1.5043199 *  0.0000000    1.2197150 *  3.5021949  
   4 O       3.2904688    2.4043843 *  1.2197150 *  0.0000000    4.2767225  
   5 H       1.0940608 *  2.1303105 *  3.5021949    4.2767225    0.0000000  
   6 H       1.0954783 *  2.1324358 *  2.7431360 *  3.3957642    1.8719310 *
   7 H       2.1281966 *  1.0979638 *  2.2276142 *  3.0115824    2.4740384 *
   8 H       3.0955345    2.2291177 *  1.1202306 *  2.0362204 *  4.0839937  

                6 H          7 H          8 H     

   1 C       1.0954783 *  2.1281966 *  3.0955345  
   2 C       2.1324358 *  1.0979638 *  2.2291177 *
   3 C       2.7431360 *  2.2276142 *  1.1202306 *
   4 O       3.3957642    3.0115824    2.0362204 *
   5 H       1.8719310 *  2.4740384 *  4.0839937  
   6 H       0.0000000    3.1092707    3.2115545  
   7 H       3.1092707    0.0000000    2.8666744 *
   8 H       3.2115545    2.8666744 *  0.0000000  

  * ... LESS THAN  3.000


     ATOMIC BASIS SET
     ----------------
 THE CONTRACTED PRIMITIVE FUNCTIONS HAVE BEEN UNNORMALIZED
 THE CONTRACTED BASIS FUNCTIONS ARE NOW NORMALIZED TO UNITY

  SHELL TYPE  PRIMITIVE        EXPONENT          CONTRACTION COEFFICIENT(S)

 C         

      1   S       1          8236.0000000    0.000542430189
      1   S       2          1235.0000000    0.004196427901
      1   S       3           280.8000000    0.021540914108
      1   S       4            79.2700000    0.083614949614
      1   S       5            25.5900000    0.239871618922
      1   S       6             8.9970000    0.443751820060
      1   S       7             3.3190000    0.353579696469
      1   S       8             0.3643000   -0.009176366076

      2   S       9          8236.0000000   -0.000196392234
      2   S      10          1235.0000000   -0.001525950274
      2   S      11           280.8000000   -0.007890449028
      2   S      12            79.2700000   -0.031514870532
      2   S      13            25.5900000   -0.096910008320
      2   S      14             8.9970000   -0.220541526288
      2   S      15             3.3190000   -0.296069112937
      2   S      16             0.3643000    1.040503432950

      3   S      17             0.9059000    1.000000000000

      4   S      18             0.1285000    1.000000000000

      5   P      19            18.7100000    0.039426387165
      5   P      20             4.1330000    0.244088984924
      5   P      21             1.2000000    0.815492008943

      6   P      22             0.3827000    1.000000000000

      7   P      23             0.1209000    1.000000000000

      8   D      24             1.0970000    1.000000000000

      9   D      25             0.3180000    1.000000000000

     10   F      26             0.7610000    1.000000000000

 C         

     11   S      27          8236.0000000    0.000542430189
     11   S      28          1235.0000000    0.004196427901
     11   S      29           280.8000000    0.021540914108
     11   S      30            79.2700000    0.083614949614
     11   S      31            25.5900000    0.239871618922
     11   S      32             8.9970000    0.443751820060
     11   S      33             3.3190000    0.353579696469
     11   S      34             0.3643000   -0.009176366076

     12   S      35          8236.0000000   -0.000196392234
     12   S      36          1235.0000000   -0.001525950274
     12   S      37           280.8000000   -0.007890449028
     12   S      38            79.2700000   -0.031514870532
     12   S      39            25.5900000   -0.096910008320
     12   S      40             8.9970000   -0.220541526288
     12   S      41             3.3190000   -0.296069112937
     12   S      42             0.3643000    1.040503432950

     13   S      43             0.9059000    1.000000000000

     14   S      44             0.1285000    1.000000000000

     15   P      45            18.7100000    0.039426387165
     15   P      46             4.1330000    0.244088984924
     15   P      47             1.2000000    0.815492008943

     16   P      48             0.3827000    1.000000000000

     17   P      49             0.1209000    1.000000000000

     18   D      50             1.0970000    1.000000000000

     19   D      51             0.3180000    1.000000000000

     20   F      52             0.7610000    1.000000000000

 C         

     21   S      53          8236.0000000    0.000542430189
     21   S      54          1235.0000000    0.004196427901
     21   S      55           280.8000000    0.021540914108
     21   S      56            79.2700000    0.083614949614
     21   S      57            25.5900000    0.239871618922
     21   S      58             8.9970000    0.443751820060
     21   S      59             3.3190000    0.353579696469
     21   S      60             0.3643000   -0.009176366076

     22   S      61          8236.0000000   -0.000196392234
     22   S      62          1235.0000000   -0.001525950274
     22   S      63           280.8000000   -0.007890449028
     22   S      64            79.2700000   -0.031514870532
     22   S      65            25.5900000   -0.096910008320
     22   S      66             8.9970000   -0.220541526288
     22   S      67             3.3190000   -0.296069112937
     22   S      68             0.3643000    1.040503432950

     23   S      69             0.9059000    1.000000000000

     24   S      70             0.1285000    1.000000000000

     25   P      71            18.7100000    0.039426387165
     25   P      72             4.1330000    0.244088984924
     25   P      73             1.2000000    0.815492008943

     26   P      74             0.3827000    1.000000000000

     27   P      75             0.1209000    1.000000000000

     28   D      76             1.0970000    1.000000000000

     29   D      77             0.3180000    1.000000000000

     30   F      78             0.7610000    1.000000000000

 O         

     31   S      79         15330.0000000    0.000520198307
     31   S      80          2299.0000000    0.004023344781
     31   S      81           522.4000000    0.020729083329
     31   S      82           147.3000000    0.081082327080
     31   S      83            47.5500000    0.236226352118
     31   S      84            16.7600000    0.443518209420
     31   S      85             6.2070000    0.358670588689
     31   S      86             0.6882000   -0.008349797237

     32   S      87         15330.0000000   -0.000197236012
     32   S      88          2299.0000000   -0.001535010700
     32   S      89           522.4000000   -0.007951183914
     32   S      90           147.3000000   -0.032113452892
     32   S      91            47.5500000   -0.100269643049
     32   S      92            16.7600000   -0.234047111838
     32   S      93             6.2070000   -0.301410927756
     32   S      94             0.6882000    1.034919649508

     33   S      95             1.7520000    1.000000000000

     34   S      96             0.2384000    1.000000000000

     35   P      97            34.4600000    0.041163489568
     35   P      98             7.7490000    0.257762835858
     35   P      99             2.2800000    0.802419274427

     36   P     100             0.7156000    1.000000000000

     37   P     101             0.2140000    1.000000000000

     38   D     102             2.3140000    1.000000000000

     39   D     103             0.6450000    1.000000000000

     40   F     104             1.4280000    1.000000000000

 H         

     41   S     105            33.8700000    0.025494863235
     41   S     106             5.0950000    0.190362765893
     41   S     107             1.1590000    0.852162022245

     42   S     108             0.3258000    1.000000000000

     43   S     109             0.1027000    1.000000000000

     44   P     110             1.4070000    1.000000000000

     45   P     111             0.3880000    1.000000000000

     46   D     112             1.0570000    1.000000000000

 H         

     47   S     113            33.8700000    0.025494863235
     47   S     114             5.0950000    0.190362765893
     47   S     115             1.1590000    0.852162022245

     48   S     116             0.3258000    1.000000000000

     49   S     117             0.1027000    1.000000000000

     50   P     118             1.4070000    1.000000000000

     51   P     119             0.3880000    1.000000000000

     52   D     120             1.0570000    1.000000000000

 H         

     53   S     121            33.8700000    0.025494863235
     53   S     122             5.0950000    0.190362765893
     53   S     123             1.1590000    0.852162022245

     54   S     124             0.3258000    1.000000000000

     55   S     125             0.1027000    1.000000000000

     56   P     126             1.4070000    1.000000000000

     57   P     127             0.3880000    1.000000000000

     58   D     128             1.0570000    1.000000000000

 H         

     59   S     129            33.8700000    0.025494863235
     59   S     130             5.0950000    0.190362765893
     59   S     131             1.1590000    0.852162022245

     60   S     132             0.3258000    1.000000000000

     61   S     133             0.1027000    1.000000000000

     62   P     134             1.4070000    1.000000000000

     63   P     135             0.3880000    1.000000000000

     64   D     136             1.0570000    1.000000000000

 TOTAL NUMBER OF BASIS SET SHELLS             =   64
 NUMBER OF CARTESIAN GAUSSIAN BASIS FUNCTIONS =  200
 NOTE: THIS RUN WILL RESTRICT THE MO VARIATION SPACE TO SPHERICAL HARMONICS.
 THE NUMBER OF ORBITALS KEPT IN THE VARIATIONAL SPACE WILL BE PRINTED LATER.
 NUMBER OF ELECTRONS                          =   30
 CHARGE OF MOLECULE                           =    0
 SPIN MULTIPLICITY                            =    1
 NUMBER OF OCCUPIED ORBITALS (ALPHA)          =   15
 NUMBER OF OCCUPIED ORBITALS (BETA )          =   15
 TOTAL NUMBER OF ATOMS                        =    8
 THE NUCLEAR REPULSION ENERGY IS      102.3391258791

     $NEO OPTIONS
     ------------
     NUNIQN=       0     BASNUC=DZSNB        NEOSCF=NONE    
     NEOCI =NONE         NUMULT=       2     NUCST =       1
     NAUXNB=       0     VNUCEX=       F     NUCOPT=       F
     NTAUXB=       0     NEOHSS=       F     HSSINI=READH   
     HSSUPD=POWELLUP     DIRNUC=       F     SYMNUC=       F
     QMTOLN= 0.0E+00     USRDEX=       F
     POSNEO=       F     POSPRP=       F
     NEONCI=       F     LOCORB=       0

     $CONTRL OPTIONS
     ---------------
 SCFTYP=RHF          RUNTYP=SADPOINT     EXETYP=RUN     
 MPLEVL=       2     CITYP =NONE         CCTYP =NONE         VBTYP =NONE    
 DFTTYP=NONE         TDDFT =NONE    
 MULT  =       1     ICHARG=       0     NZVAR =       0     COORD =UNIQUE  
 PP    =NONE         RELWFN=NONE         LOCAL =NONE         NUMGRD=       F
 ISPHER=       1     NOSYM =       0     MAXIT =      30     UNITS =ANGS    
 PLTORB=       F     MOLPLT=       F     AIMPAC=       F     FRIEND=        
 NPRINT=       7     IREST =       0     GEOM  =INPUT   
 NORMF =       0     NORMP =       0     ITOL  =      20     ICUT  =       9
 INTTYP=BEST         GRDTYP=BEST         QMTTOL= 1.0E-06

     $SYSTEM OPTIONS
     ---------------
  REPLICATED MEMORY=    80000000 WORDS (ON EVERY NODE).
 DISTRIBUTED MEMDDI=          20 MILLION WORDS IN AGGREGATE,
 MEMDDI DISTRIBUTED OVER   4 PROCESSORS IS     5000000 WORDS/PROCESSOR.
 TOTAL MEMORY REQUESTED ON EACH PROCESSOR=    85000000 WORDS.
 TIMLIM=        9000.00 MINUTES, OR       6.3 DAYS.
 PARALL= T  BALTYP=  DLB     KDIAG=    0  COREFL= F
 MXSEQ2=     300 MXSEQ3=     150

          ----------------
          PROPERTIES INPUT
          ----------------

     MOMENTS            FIELD           POTENTIAL          DENSITY
 IEMOM =       1   IEFLD =       0   IEPOT =       0   IEDEN =       0
 WHERE =COMASS     WHERE =NUCLEI     WHERE =NUCLEI     WHERE =NUCLEI  
 OUTPUT=BOTH       OUTPUT=BOTH       OUTPUT=BOTH       OUTPUT=BOTH    
 IEMINT=       0   IEFINT=       0                     IEDINT=       0
                                                       MORB  =       0
          EXTRAPOLATION IN EFFECT
          SOSCF IN EFFECT
 ORBITAL PRINTING OPTION: NPREO=     1   200     2     1

     -------------------------------
     INTEGRAL TRANSFORMATION OPTIONS
     -------------------------------
     NWORD  =            0
     CUTOFF = 1.0E-09     MPTRAN =       0
     DIRTRF =       F     AOINTS =DUP     

          ----------------------
          INTEGRAL INPUT OPTIONS
          ----------------------
 NOPK  =       1 NORDER=       0 SCHWRZ=       T

          -----------------------
          MP2 CONTROL INFORMATION
          -----------------------
          NACORE =        4  NBCORE =        4
          LMOMP2 =        F  AOINTS = DUP     
          METHOD =        2  NWORD  =               0
          MP2PRP =        F  OSPT   = NONE    
          CUTOFF = 1.00E-09  CPHFBS = BASISAO 
          CODE   = DDI     

          NUMBER OF CORE -A-  ORBITALS =     4
          NUMBER OF CORE -B-  ORBITALS =     4
          NUMBER OF OCC. -A-  ORBITALS =    15
          NUMBER OF OCC. -B-  ORBITALS =    15
          NUMBER OF MOLECULAR ORBITALS =   200
          NUMBER OF   BASIS  FUNCTIONS =   200


     ------------------------------------------
     THE POINT GROUP IS C1 , NAXIS= 0, ORDER= 1
     ------------------------------------------

 -- VARIATIONAL SPACE WILL BE RESTRICTED TO PURE SPHERICAL HARMONICS ONLY --
 AFTER EXCLUDING CONTAMINANT COMBINATIONS FROM THE CARTESIAN GAUSSIAN BASIS
 SET, THE NUMBER OF SPHERICAL HARMONICS KEPT IN THE VARIATION SPACE IS  176

     DIMENSIONS OF THE SYMMETRY SUBSPACES ARE
 A   =  176

 ..... DONE SETTING UP THE RUN .....
 CPU     0: STEP CPU TIME=     0.03 TOTAL CPU TIME=        0.0 (    0.0 MIN)
 TOTAL WALL CLOCK TIME=        0.0 SECONDS, CPU UTILIZATION IS 100.00%


          -----------------------------
          STATIONARY POINT LOCATION RUN
          -----------------------------

 OBTAINING INITIAL HESSIAN, HESS=CALC    

     ---------------------------------
     HESSIAN MATRIX CONTROL PARAMETERS
     ---------------------------------
     METHOD=SEMINUM    NVIB  =       2   VIBSIZ= 0.01000
     RDHESS=       F   PURIFY=       F   PRTIFC=       F
     VIBANL=       F   DECOMP=       F   PROJCT=       F
     SCLFAC= 1.00000   PRTSCN=       F   NPRT  =       0
     PULCOR=       F   NPUN  =       0   REDOVB=       T
1   ATOM  0
                                        -------------------
   COORD  0                             NUCLEAR COORDINATES
                                        -------------------
     VIB  0

                       ATOM             X              Y              Z

                 1  C                0.514795      -2.678270      -0.549863
                 2  C                0.365836      -0.518325       0.788701
                 3  C               -1.913462       1.178036       0.697045
                 4  O               -2.129975       2.945132      -0.766916
                 5  H                2.201237      -3.871778      -0.473021
                 6  H               -1.041806      -3.299758      -1.764888
                 7  H                1.936117       0.084913       2.003331
                 8  H               -3.442294       0.726444       2.089929

          ********************
          1 ELECTRON INTEGRALS
          ********************
 ...... END OF ONE-ELECTRON INTEGRALS ......
 CPU     0: STEP CPU TIME=     0.01 TOTAL CPU TIME=        0.0 (    0.0 MIN)
 TOTAL WALL CLOCK TIME=        0.0 SECONDS, CPU UTILIZATION IS 100.00%

          -------------
          GUESS OPTIONS
          -------------
          GUESS =HUCKEL            NORB  =       0          NORDER=       0
          MIX   =       F          PRTMO =       F          PUNMO =       F
          TOLZ  = 1.0E-08          TOLE  = 1.0E-05
          SYMDEN=       F          PURIFY=       F

 INITIAL GUESS ORBITALS GENERATED BY HUCKEL   ROUTINE.
 HUCKEL GUESS REQUIRES    294544 WORDS.

 STATISTICS FOR GENERATION OF SYMMETRY ORBITAL -Q- MATRIX
 NUMBER OF CARTESIAN ATOMIC ORBITALS=        200
 NUMBER OF SPHERICAL CONTAMINANTS DROPPED=    24
 NUMBER OF LINEARLY DEPENDENT MOS DROPPED=     0
 TOTAL NUMBER OF MOS IN VARIATION SPACE=     176

 SYMMETRIES FOR INITIAL GUESS ORBITALS FOLLOW.   BOTH SET(S).
    15 ORBITALS ARE OCCUPIED (    4 CORE ORBITALS).
     5=A        6=A        7=A        8=A        9=A       10=A       11=A   
    12=A       13=A       14=A       15=A       16=A       17=A       18=A   
    19=A       20=A       21=A       22=A       23=A       24=A       25=A   
 ...... END OF INITIAL ORBITAL SELECTION ......
 CPU     0: STEP CPU TIME=     0.03 TOTAL CPU TIME=        0.1 (    0.0 MIN)
 TOTAL WALL CLOCK TIME=        0.1 SECONDS, CPU UTILIZATION IS 100.00%

                    ----------------------
                    AO INTEGRAL TECHNOLOGY
                    ----------------------
     S,P,L SHELL ROTATED AXIS INTEGRALS, REPROGRAMMED BY
        KAZUYA ISHIMURA (IMS) AND JOSE SIERRA (SYNSTAR).
     S,P,D,L SHELL ROTATED AXIS INTEGRALS PROGRAMMED BY
        KAZUYA ISHIMURA (INSTITUTE FOR MOLECULAR SCIENCE).
     S,P,D,F,G SHELL TO TOTAL QUARTET ANGULAR MOMENTUM SUM 5,
        ERIC PROGRAM BY GRAHAM FLETCHER (ELORET AND NASA ADVANCED
        SUPERCOMPUTING DIVISION, AMES RESEARCH CENTER).
     S,P,D,F,G,L SHELL GENERAL RYS QUADRATURE PROGRAMMED BY
        MICHEL DUPUIS (PACIFIC NORTHWEST NATIONAL LABORATORY).

          --------------------
          2 ELECTRON INTEGRALS
          --------------------

 THE -PK- OPTION IS OFF, THE INTEGRALS ARE NOT IN SUPERMATRIX FORM.
 STORING   15000 INTEGRALS/RECORD ON DISK, USING 12 BYTES/INTEGRAL.
 TWO ELECTRON INTEGRAL EVALUATION REQUIRES  101180 WORDS OF MEMORY.
 SCHWARZ INEQUALITY OVERHEAD:     19891 INTEGRALS, T=        0.00
 II,JST,KST,LST =  1  1  1  1 NREC =         1 INTLOC =    1
 II,JST,KST,LST =  2  1  1  1 NREC =         1 INTLOC =    1
 II,JST,KST,LST =  3  1  1  1 NREC =         1 INTLOC =    1
 II,JST,KST,LST =  4  1  1  1 NREC =         1 INTLOC =   11
 II,JST,KST,LST =  5  1  1  1 NREC =         1 INTLOC =   33
 II,JST,KST,LST =  6  1  1  1 NREC =         1 INTLOC =   33
 II,JST,KST,LST =  7  1  1  1 NREC =         1 INTLOC =  126
 II,JST,KST,LST =  8  1  1  1 NREC =         1 INTLOC =  219
 II,JST,KST,LST =  9  1  1  1 NREC =         1 INTLOC =  702
 II,JST,KST,LST = 10  1  1  1 NREC =         1 INTLOC = 3333
 II,JST,KST,LST = 11  1  1  1 NREC =         1 INTLOC =13176
 II,JST,KST,LST = 12  1  1  1 NREC =         1 INTLOC =13176
 II,JST,KST,LST = 13  1  1  1 NREC =         3 INTLOC =  711
 II,JST,KST,LST = 14  1  1  1 NREC =         3 INTLOC =14636
 II,JST,KST,LST = 15  1  1  1 NREC =         4 INTLOC = 6360
 II,JST,KST,LST = 16  1  1  1 NREC =         5 INTLOC =11502
 II,JST,KST,LST = 17  1  1  1 NREC =         8 INTLOC =11514
 II,JST,KST,LST = 18  1  1  1 NREC =         8 INTLOC =11514
 II,JST,KST,LST = 19  1  1  1 NREC =        18 INTLOC =11898
 II,JST,KST,LST = 20  1  1  1 NREC =        21 INTLOC =11106
 II,JST,KST,LST = 21  1  1  1 NREC =        31 INTLOC = 7352
 II,JST,KST,LST = 22  1  1  1 NREC =        35 INTLOC =13408
 II,JST,KST,LST = 23  1  1  1 NREC =        40 INTLOC =11207
 II,JST,KST,LST = 24  1  1  1 NREC =        41 INTLOC = 3944
 II,JST,KST,LST = 25  1  1  1 NREC =        41 INTLOC = 9420
 II,JST,KST,LST = 26  1  1  1 NREC =        48 INTLOC =13900
 II,JST,KST,LST = 27  1  1  1 NREC =        65 INTLOC =13517
 II,JST,KST,LST = 28  1  1  1 NREC =        80 INTLOC =  913
 II,JST,KST,LST = 29  1  1  1 NREC =       123 INTLOC =  202
 II,JST,KST,LST = 30  1  1  1 NREC =       145 INTLOC =13296
 II,JST,KST,LST = 31  1  1  1 NREC =       237 INTLOC =  375
 II,JST,KST,LST = 32  1  1  1 NREC =       242 INTLOC =11106
 II,JST,KST,LST = 33  1  1  1 NREC =       252 INTLOC =10475
 II,JST,KST,LST = 34  1  1  1 NREC =       263 INTLOC = 4588
 II,JST,KST,LST = 35  1  1  1 NREC =       270 INTLOC =  533
 II,JST,KST,LST = 36  1  1  1 NREC =       300 INTLOC = 4208
 II,JST,KST,LST = 37  1  1  1 NREC =       339 INTLOC = 9051
 II,JST,KST,LST = 38  1  1  1 NREC =       370 INTLOC =12802
 II,JST,KST,LST = 39  1  1  1 NREC =       438 INTLOC =11843
 II,JST,KST,LST = 40  1  1  1 NREC =       558 INTLOC = 4356
 II,JST,KST,LST = 41  1  1  1 NREC =       685 INTLOC =10550
 II,JST,KST,LST = 42  1  1  1 NREC =       712 INTLOC = 3290
 II,JST,KST,LST = 43  1  1  1 NREC =       733 INTLOC = 1125
 II,JST,KST,LST = 44  1  1  1 NREC =       751 INTLOC = 4114
 II,JST,KST,LST = 45  1  1  1 NREC =       804 INTLOC =13240
 II,JST,KST,LST = 46  1  1  1 NREC =       867 INTLOC = 1378
 II,JST,KST,LST = 47  1  1  1 NREC =       986 INTLOC =  213
 II,JST,KST,LST = 48  1  1  1 NREC =      1008 INTLOC = 4318
 II,JST,KST,LST = 49  1  1  1 NREC =      1037 INTLOC = 5050
 II,JST,KST,LST = 50  1  1  1 NREC =      1070 INTLOC = 2382
 II,JST,KST,LST = 51  1  1  1 NREC =      1150 INTLOC = 8187
 II,JST,KST,LST = 52  1  1  1 NREC =      1237 INTLOC = 6343
 II,JST,KST,LST = 53  1  1  1 NREC =      1425 INTLOC = 1899
 II,JST,KST,LST = 54  1  1  1 NREC =      1467 INTLOC =  792
 II,JST,KST,LST = 55  1  1  1 NREC =      1501 INTLOC =14828
 II,JST,KST,LST = 56  1  1  1 NREC =      1543 INTLOC = 3841
 II,JST,KST,LST = 57  1  1  1 NREC =      1645 INTLOC = 5153
 II,JST,KST,LST = 58  1  1  1 NREC =      1780 INTLOC =14685
 II,JST,KST,LST = 59  1  1  1 NREC =      1978 INTLOC = 7855
 II,JST,KST,LST = 60  1  1  1 NREC =      2013 INTLOC =14253
 II,JST,KST,LST = 61  1  1  1 NREC =      2065 INTLOC = 6428
 II,JST,KST,LST = 62  1  1  1 NREC =      2113 INTLOC =12502
 II,JST,KST,LST = 63  1  1  1 NREC =      2230 INTLOC =12532
 II,JST,KST,LST = 64  1  1  1 NREC =      2409 INTLOC = 8690
 SCHWARZ INEQUALITY TEST SKIPPED      238663 INTEGRAL BLOCKS.
 TOTAL NUMBER OF NONZERO TWO-ELECTRON INTEGRALS =           162753733
      10853 INTEGRAL RECORDS WERE STORED ON DISK FILE  8.
  ...... END OF TWO-ELECTRON INTEGRALS .....
 CPU     0: STEP CPU TIME=     2.58 TOTAL CPU TIME=        2.6 (    0.0 MIN)
 TOTAL WALL CLOCK TIME=        2.6 SECONDS, CPU UTILIZATION IS 100.00%

          --------------------------
                 RHF SCF CALCULATION
          --------------------------

     NUCLEAR ENERGY =       102.3391258791
     MAXIT =   30     NPUNCH=    2
     EXTRAP=T  DAMP=F  SHIFT=F  RSTRCT=F  DIIS=F  DEM=F  SOSCF=T
     DENSITY MATRIX CONV=  1.00E-06
     SOSCF WILL OPTIMIZE    2415 ORBITAL ROTATIONS, SOGTOL=   0.250
     MEMORY REQUIRED FOR RHF ITERS=    322460 WORDS.

 ITER EX DEM     TOTAL ENERGY        E CHANGE  DENSITY CHANGE     ORB. GRAD
   1  0  0     -190.1873435193  -190.1873435193   0.310027051   0.000000000
          ---------------START SECOND ORDER SCF---------------
   2  1  0     -190.7457046285    -0.5583611093   0.080047641   0.055986989
   3  2  0     -190.7758012732    -0.0300966447   0.032981988   0.047923168
   4  3  0     -190.8160739390    -0.0402726658   0.008463005   0.004057061
   5  4  0     -190.8169049537    -0.0008310146   0.007160834   0.001736731
   6  5  0     -190.8170018271    -0.0000968734   0.000850472   0.000590745
   7  6  0     -190.8170088345    -0.0000070073   0.000305514   0.000122458
   8  7  0     -190.8170099467    -0.0000011122   0.000126664   0.000061041
   9  8  0     -190.8170101451    -0.0000001984   0.000055390   0.000027776
  10  9  0     -190.8170101750    -0.0000000299   0.000020652   0.000010428
  11 10  0     -190.8170101815    -0.0000000065   0.000008742   0.000004185
  12 11  0     -190.8170101828    -0.0000000013   0.000004756   0.000001784
  13 12  0     -190.8170101830    -0.0000000003   0.000001858   0.000000504
  14 13  0     -190.8170101831     0.0000000000   0.000000465   0.000000186

          -----------------
          DENSITY CONVERGED
          -----------------
     TIME TO FORM FOCK OPERATORS=       9.3 SECONDS (       0.7 SEC/ITER)
     TIME TO SOLVE SCF EQUATIONS=       0.3 SECONDS (       0.0 SEC/ITER)

 FINAL RHF ENERGY IS     -190.8170101831 AFTER  14 ITERATIONS

          ------------
          EIGENVECTORS
          ------------

                      1          2          3          4          5
                  -20.5673   -11.3466   -11.2626   -11.2578    -1.3930
                     A          A          A          A          A   
    1  C  1  S    0.000003   0.000060   0.164570   0.964497  -0.000861
    2  C  1  S    0.000002   0.000170  -0.000219   0.001442   0.008910
    3  C  1  S   -0.000034   0.000026   0.007124   0.040697   0.001288
    4  C  1  S    0.000995  -0.001438  -0.001174   0.004965   0.023084
    5  C  1  X   -0.000019  -0.000014  -0.000020  -0.000013  -0.000984
    6  C  1  Y   -0.000010   0.000036   0.000231  -0.000317   0.003150
    7  C  1  Z   -0.000009   0.000019   0.000145  -0.000194   0.000987
    8  C  1  X    0.000274   0.000232   0.000098  -0.000158   0.000027
    9  C  1  Y    0.000058  -0.000309  -0.001353   0.002310  -0.000429
   10  C  1  Z    0.000155  -0.000089  -0.000840   0.001420  -0.000852
   11  C  1  X   -0.000182   0.000356   0.000483  -0.000190  -0.005084
   12  C  1  Y    0.000389  -0.000884  -0.001161   0.001019   0.006310
   13  C  1  Z    0.000229  -0.000363  -0.000502   0.000577   0.001111
   14  C  1 XX   -0.000004   0.000002   0.000108   0.000050  -0.000095
   15  C  1 YY    0.000000   0.000007  -0.000112   0.000221   0.000241
   16  C  1 ZZ    0.000004  -0.000009   0.000004  -0.000271  -0.000146
   17  C  1 XY    0.000012  -0.000009   0.000004  -0.000245  -0.000141
   18  C  1 XZ   -0.000012  -0.000001   0.000022   0.000323  -0.000121
   19  C  1 YZ    0.000009   0.000016  -0.000137   0.000625   0.000168
   20  C  1 XX   -0.000017   0.000081   0.000881  -0.000991   0.002165
   21  C  1 YY    0.000117  -0.000056  -0.000728   0.000760  -0.001719
   22  C  1 ZZ   -0.000100  -0.000026  -0.000153   0.000230  -0.000446
   23  C  1 XY   -0.000139  -0.000112  -0.000120   0.000262   0.000369
   24  C  1 XZ   -0.000004  -0.000040   0.000464  -0.000448   0.003645
   25  C  1 YZ    0.000048  -0.000169  -0.000596   0.000652   0.000475
   26  C  1 XXX  -0.000001   0.000001  -0.000024   0.000097   0.000266
   27  C  1 YYY   0.000006   0.000023  -0.000043   0.000351   0.000294
   28  C  1 ZZZ  -0.000023   0.000028   0.000123  -0.000070   0.000159
   29  C  1 XXY  -0.000016  -0.000032   0.000102  -0.000633  -0.000231
   30  C  1 XXZ   0.000004  -0.000024   0.000060  -0.000352  -0.000196
   31  C  1 YYX   0.000018   0.000041   0.000058   0.000167  -0.000210
   32  C  1 YYZ   0.000026  -0.000013  -0.000225   0.000446  -0.000018
   33  C  1 ZZX  -0.000017  -0.000043  -0.000026  -0.000298  -0.000147
   34  C  1 ZZY   0.000008   0.000002  -0.000044   0.000161  -0.000163
   35  C  1 XYZ   0.000010  -0.000018   0.000014  -0.000229  -0.000321
   36  C  2  S    0.000157   0.003962   0.964215  -0.165490  -0.002099
   37  C  2  S    0.000288   0.000364   0.001139  -0.000729   0.038351
   38  C  2  S   -0.000052   0.000314   0.040857  -0.006859   0.009390
   39  C  2  S   -0.000363  -0.000186   0.005539  -0.001515  -0.020857
   40  C  2  X    0.000012  -0.000174  -0.000149   0.000040  -0.009621
   41  C  2  Y   -0.000025   0.000148   0.000402  -0.000350   0.008669
   42  C  2  Z    0.000020  -0.000001   0.000251  -0.000222  -0.002960
   43  C  2  X   -0.000499  -0.000235   0.000198   0.000171  -0.004246
   44  C  2  Y    0.000485  -0.000070  -0.001850   0.001965   0.004700
   45  C  2  Z   -0.000184  -0.000150  -0.001140   0.001393  -0.003750
   46  C  2  X    0.000138   0.000620  -0.000630  -0.000145   0.010713
   47  C  2  Y    0.000646  -0.001206  -0.000575   0.001360   0.001909
   48  C  2  Z    0.000049  -0.000576  -0.000755   0.000781   0.006721
   49  C  2 XX    0.000043  -0.000015   0.000020   0.000080   0.000115
   50  C  2 YY   -0.000010   0.000000   0.000169  -0.000170   0.000701
   51  C  2 ZZ   -0.000032   0.000015  -0.000189   0.000090  -0.000817
   52  C  2 XY   -0.000055   0.000017  -0.000143   0.000079  -0.001556
   53  C  2 XZ   -0.000031  -0.000032   0.000285  -0.000093   0.000684
   54  C  2 YZ   -0.000031  -0.000006   0.000528  -0.000327   0.000003
   55  C  2 XX   -0.000102  -0.000098  -0.000649   0.001357  -0.002680
   56  C  2 YY    0.000178   0.000092   0.000523  -0.001161   0.000079
   57  C  2 ZZ   -0.000076   0.000007   0.000126  -0.000196   0.002600
   58  C  2 XY   -0.000164   0.000027   0.000129  -0.000035   0.005288
   59  C  2 XZ    0.000143  -0.000052  -0.000285   0.000863   0.001682
   60  C  2 YZ   -0.000093   0.000099   0.000445  -0.000819   0.002776
   61  C  2 XXX   0.000007   0.000002  -0.000061   0.000056   0.000249
   62  C  2 YYY  -0.000002   0.000104  -0.000245   0.000148   0.000233
   63  C  2 ZZZ  -0.000003  -0.000011   0.000039  -0.000154  -0.000012
   64  C  2 XXY   0.000021  -0.000254   0.000430  -0.000298  -0.000512
   65  C  2 XXZ  -0.000053   0.000025   0.000271  -0.000160   0.000551
   66  C  2 YYX  -0.000018   0.000160  -0.000120  -0.000012   0.000013
   67  C  2 YYZ   0.000057  -0.000010  -0.000323   0.000367  -0.000535
   68  C  2 ZZX   0.000009  -0.000163   0.000202  -0.000062  -0.000348
   69  C  2 ZZY  -0.000018   0.000115  -0.000102   0.000100   0.000199
   70  C  2 XYZ  -0.000019  -0.000038   0.000180  -0.000081   0.000334
   71  C  3  S    0.000590   0.978351  -0.003766   0.000562  -0.016269
   72  C  3  S    0.001304   0.000777   0.000420  -0.000280   0.242723
   73  C  3  S    0.000023   0.040759   0.000011   0.000070   0.051973
   74  C  3  S   -0.001353   0.004979  -0.000757  -0.000929   0.067552
   75  C  3  X   -0.000008   0.000072   0.000160  -0.000028  -0.007091
   76  C  3  Y    0.000143   0.000017  -0.000117  -0.000033   0.073910
   77  C  3  Z   -0.000113  -0.000046  -0.000005  -0.000040  -0.062448
   78  C  3  X   -0.000142  -0.000256   0.000467  -0.000341  -0.008446
   79  C  3  Y    0.001857   0.000673  -0.000504   0.000557   0.061599
   80  C  3  Z   -0.001644  -0.000428   0.000118   0.000269  -0.050570
   81  C  3  X   -0.000442   0.000671  -0.000416  -0.000420  -0.001098
   82  C  3  Y   -0.000389  -0.000755   0.000162   0.000208   0.003189
   83  C  3  Z    0.000622   0.000287   0.000183   0.000108  -0.003114
   84  C  3 XX   -0.000218  -0.000095   0.000016  -0.000009  -0.007790
   85  C  3 YY    0.000181   0.000109  -0.000006  -0.000004   0.006435
   86  C  3 ZZ    0.000037  -0.000014  -0.000010   0.000013   0.001355
   87  C  3 XY   -0.000077  -0.000221  -0.000008   0.000018  -0.003391
   88  C  3 XZ    0.000051  -0.000228   0.000009  -0.000019   0.000288
   89  C  3 YZ   -0.000394  -0.000678   0.000031  -0.000031  -0.016639
   90  C  3 XX   -0.000994  -0.000130   0.000029   0.000161  -0.005443
   91  C  3 YY    0.000657   0.000055  -0.000022  -0.000227   0.003757
   92  C  3 ZZ    0.000337   0.000075  -0.000007   0.000066   0.001687
   93  C  3 XY    0.000172   0.000024   0.000020   0.000200  -0.002415
   94  C  3 XZ    0.000489  -0.000106   0.000010   0.000158  -0.004639
   95  C  3 YZ   -0.000871  -0.000351   0.000058  -0.000057  -0.017690
   96  C  3 XXX  -0.000003   0.000135  -0.000008   0.000037   0.002044
   97  C  3 YYY  -0.000064   0.000171  -0.000099   0.000046   0.002337
   98  C  3 ZZZ   0.000080   0.000044  -0.000004  -0.000006   0.001031
   99  C  3 XXY   0.000002  -0.000478   0.000271  -0.000050  -0.006854
  100  C  3 XXZ   0.000022   0.000380  -0.000031   0.000010   0.004920
  101  C  3 YYX  -0.000076   0.000139  -0.000147  -0.000011   0.001631
  102  C  3 YYZ  -0.000129  -0.000439   0.000037  -0.000002  -0.006302
  103  C  3 ZZX   0.000080  -0.000320   0.000158  -0.000039  -0.004374
  104  C  3 ZZY   0.000083   0.000248  -0.000138  -0.000012   0.003719
  105  C  3 XYZ  -0.000002   0.000195   0.000006  -0.000039   0.002689
  106  O  4  S    0.975281  -0.000463   0.000091   0.000001  -0.009433
  107  O  4  S   -0.001820  -0.000103   0.000154   0.000002   0.464242
  108  O  4  S    0.043505   0.000232  -0.000009  -0.000002   0.120790
  109  O  4  S    0.002414  -0.000537   0.000116   0.000088   0.229704
  110  O  4  X    0.000192   0.000034  -0.000005   0.000000   0.007544
  111  O  4  Y   -0.001464  -0.000297   0.000007   0.000004  -0.056920
  112  O  4  Z    0.001208   0.000249  -0.000001   0.000006   0.046858
  113  O  4  X   -0.000239  -0.000011  -0.000015   0.000011   0.009202
  114  O  4  Y    0.001668   0.000218  -0.000083  -0.000005  -0.072520
  115  O  4  Z   -0.001353  -0.000196   0.000082  -0.000018   0.060016
  116  O  4  X    0.000093  -0.000165  -0.000056   0.000060   0.001770
  117  O  4  Y   -0.000124   0.000037   0.000007  -0.000004  -0.010889
  118  O  4  Z    0.000032   0.000101   0.000065  -0.000023   0.008831
  119  O  4 XX   -0.000005  -0.000004   0.000001   0.000002  -0.003658
  120  O  4 YY    0.000020   0.000003   0.000006  -0.000001   0.002945
  121  O  4 ZZ   -0.000016   0.000000  -0.000007  -0.000001   0.000713
  122  O  4 XY   -0.000071   0.000007  -0.000014   0.000006  -0.001180
  123  O  4 XZ   -0.000062   0.000019   0.000001   0.000002   0.000685
  124  O  4 YZ   -0.000165   0.000029  -0.000009  -0.000006  -0.006730
  125  O  4 XX    0.000413   0.000148  -0.000059   0.000003  -0.008347
  126  O  4 YY   -0.000302  -0.000128   0.000016   0.000014   0.006546
  127  O  4 ZZ   -0.000111  -0.000020   0.000043  -0.000017   0.001801
  128  O  4 XY    0.000016   0.000049   0.000052  -0.000031  -0.002013
  129  O  4 XZ   -0.000173  -0.000061   0.000024  -0.000014   0.002017
  130  O  4 YZ    0.000517   0.000217  -0.000035   0.000040  -0.014157
  131  O  4 XXX   0.000015   0.000006  -0.000008   0.000002  -0.000767
  132  O  4 YYY  -0.000006   0.000010  -0.000014  -0.000009  -0.000131
  133  O  4 ZZZ   0.000038  -0.000004   0.000008  -0.000005  -0.001359
  134  O  4 XXY  -0.000049  -0.000016   0.000019   0.000000   0.002544
  135  O  4 XXZ   0.000041   0.000008  -0.000019   0.000007  -0.002012
  136  O  4 YYX  -0.000020   0.000009  -0.000017   0.000008   0.000385
  137  O  4 YYZ  -0.000093  -0.000002   0.000008   0.000000   0.003835
  138  O  4 ZZX   0.000000  -0.000016   0.000028  -0.000011   0.000644
  139  O  4 ZZY   0.000057   0.000002   0.000000   0.000013  -0.002368
  140  O  4 XYZ   0.000019   0.000007  -0.000012   0.000003  -0.001005
  141  H  5  S   -0.000007  -0.000001   0.000023   0.000097   0.000597
  142  H  5  S   -0.000296  -0.000413  -0.000840   0.001308  -0.003358
  143  H  5  S    0.000095  -0.000359  -0.000506  -0.000259   0.000748
  144  H  5  X    0.000012   0.000017   0.000041   0.000258   0.000042
  145  H  5  Y   -0.000002  -0.000014  -0.000038  -0.000186   0.000020
  146  H  5  Z    0.000007   0.000002  -0.000003   0.000009   0.000067
  147  H  5  X    0.000117   0.000182   0.000167  -0.000357   0.000885
  148  H  5  Y   -0.000080  -0.000086  -0.000339   0.000372  -0.002020
  149  H  5  Z   -0.000023   0.000014  -0.000143   0.000062  -0.001174
  150  H  5 XX   -0.000010  -0.000027  -0.000002  -0.000121   0.000080
  151  H  5 YY   -0.000001   0.000013  -0.000021   0.000008  -0.000142
  152  H  5 ZZ    0.000012   0.000015   0.000023   0.000113   0.000062
  153  H  5 XY    0.000008   0.000022   0.000047   0.000207   0.000193
  154  H  5 XZ    0.000003  -0.000001   0.000019   0.000028   0.000113
  155  H  5 YZ   -0.000005   0.000015  -0.000008   0.000062  -0.000124
  156  H  6  S    0.000008  -0.000031   0.000001   0.000107   0.001199
  157  H  6  S    0.000110   0.000224  -0.000686   0.001034  -0.006843
  158  H  6  S    0.000046  -0.000181  -0.000212  -0.000354  -0.001744
  159  H  6  X    0.000004  -0.000013  -0.000037  -0.000238  -0.000102
  160  H  6  Y   -0.000015   0.000002  -0.000023  -0.000098   0.000090
  161  H  6  Z    0.000010  -0.000001  -0.000032  -0.000187  -0.000011
  162  H  6  X    0.000092   0.000022  -0.000114   0.000225  -0.001508
  163  H  6  Y    0.000049  -0.000025  -0.000308   0.000257  -0.001001
  164  H  6  Z    0.000056   0.000003  -0.000265   0.000287  -0.001300
  165  H  6 XX    0.000003  -0.000003   0.000016  -0.000088  -0.000113
  166  H  6 YY   -0.000007  -0.000008  -0.000005   0.000123   0.000091
  167  H  6 ZZ    0.000004   0.000011  -0.000011  -0.000035   0.000021
  168  H  6 XY    0.000003   0.000005  -0.000037  -0.000145  -0.000001
  169  H  6 XZ    0.000018  -0.000004  -0.000031  -0.000185  -0.000082
  170  H  6 YZ    0.000008  -0.000014  -0.000045  -0.000030   0.000075
  171  H  7  S   -0.000005   0.000028   0.000134  -0.000019   0.002805
  172  H  7  S    0.000209   0.000204   0.000869  -0.001721  -0.000770
  173  H  7  S   -0.000083  -0.000046  -0.000232  -0.000283  -0.003290
  174  H  7  X    0.000006  -0.000018   0.000205  -0.000041  -0.000119
  175  H  7  Y   -0.000017  -0.000033   0.000089   0.000002  -0.000007
  176  H  7  Z   -0.000011  -0.000034   0.000166  -0.000021  -0.000077
  177  H  7  X   -0.000133  -0.000030  -0.000183   0.000345   0.000760
  178  H  7  Y   -0.000067  -0.000018  -0.000153   0.000486  -0.000240
  179  H  7  Z   -0.000095  -0.000006  -0.000191   0.000500   0.000145
  180  H  7 XX    0.000006  -0.000009  -0.000081   0.000055   0.000050
  181  H  7 YY   -0.000011  -0.000014   0.000109  -0.000043   0.000090
  182  H  7 ZZ    0.000005   0.000023  -0.000028  -0.000012  -0.000140
  183  H  7 XY    0.000019   0.000043  -0.000128  -0.000016  -0.000191
  184  H  7 XZ    0.000022   0.000010  -0.000182   0.000023   0.000082
  185  H  7 YZ    0.000023  -0.000001  -0.000045  -0.000041  -0.000023
  186  H  8  S    0.000084   0.000149   0.000056   0.000002   0.014649
  187  H  8  S    0.000752  -0.000149  -0.000103  -0.000089  -0.007956
  188  H  8  S   -0.000233  -0.000637  -0.000324  -0.000152  -0.003107
  189  H  8  X    0.000061  -0.000186   0.000030   0.000003  -0.000522
  190  H  8  Y   -0.000009  -0.000091   0.000015  -0.000011   0.000584
  191  H  8  Z   -0.000027   0.000197  -0.000038  -0.000007  -0.000184
  192  H  8  X    0.000068  -0.000135  -0.000128  -0.000055  -0.007711
  193  H  8  Y    0.000285   0.000124   0.000091  -0.000052  -0.001580
  194  H  8  Z   -0.000322   0.000001   0.000031   0.000093   0.006363
  195  H  8 XX    0.000003  -0.000075  -0.000030  -0.000008  -0.001005
  196  H  8 YY   -0.000019   0.000129   0.000000   0.000017   0.001022
  197  H  8 ZZ    0.000016  -0.000054   0.000030  -0.000008  -0.000017
  198  H  8 XY    0.000036  -0.000107   0.000050  -0.000025  -0.000298
  199  H  8 XZ   -0.000012   0.000215   0.000000   0.000008   0.001447
  200  H  8 YZ    0.000032   0.000014  -0.000011   0.000017  -0.000230

                      6          7          8          9         10
                   -1.0714    -0.8871    -0.7692    -0.6796    -0.6520
                     A          A          A          A          A   
    1  C  1  S   -0.013996   0.007881   0.002498  -0.000530  -0.000028
    2  C  1  S    0.311692  -0.290299  -0.158199   0.009124  -0.016225
    3  C  1  S    0.062518  -0.059302  -0.032982   0.001759  -0.003382
    4  C  1  S    0.119573  -0.155166  -0.109849   0.008647  -0.051521
    5  C  1  X   -0.006214  -0.013277   0.023326  -0.097556  -0.084809
    6  C  1  Y    0.051427   0.014226   0.070240   0.004259   0.059071
    7  C  1  Z    0.031159   0.005024   0.052227  -0.060620   0.011142
    8  C  1  X   -0.005093  -0.014675   0.026220  -0.114512  -0.104911
    9  C  1  Y    0.041989   0.022090   0.080032   0.009137   0.068375
   10  C  1  Z    0.025911   0.010678   0.058241  -0.072183   0.013528
   11  C  1  X   -0.003956  -0.006024   0.010167  -0.041379  -0.031185
   12  C  1  Y    0.007754   0.000235   0.023197   0.004004   0.014757
   13  C  1  Z    0.003654  -0.002945   0.014572  -0.026921   0.003621
   14  C  1 XX   -0.002092  -0.001851  -0.005688   0.001013  -0.003598
   15  C  1 YY    0.005300  -0.001342   0.003474  -0.000618   0.001127
   16  C  1 ZZ   -0.003208   0.003193   0.002214  -0.000395   0.002470
   17  C  1 XY   -0.003236   0.002295   0.002654   0.001662   0.002087
   18  C  1 XZ    0.002742  -0.004859  -0.003807   0.001987  -0.000844
   19  C  1 YZ    0.010248  -0.006034   0.000358  -0.001055   0.003337
   20  C  1 XX    0.002860  -0.004728  -0.008612   0.002087  -0.004759
   21  C  1 YY    0.001848   0.000862   0.003378   0.002842  -0.000564
   22  C  1 ZZ   -0.004708   0.003866   0.005234  -0.004928   0.005323
   23  C  1 XY   -0.004388  -0.000508   0.007837  -0.005404   0.005233
   24  C  1 XZ    0.005879  -0.010884  -0.005266  -0.001137  -0.003655
   25  C  1 YZ    0.009168  -0.009810  -0.001135  -0.002667   0.004185
   26  C  1 XXX   0.001093  -0.000299  -0.001148   0.002014   0.001132
   27  C  1 YYY   0.003161  -0.002847  -0.001207   0.001276  -0.000098
   28  C  1 ZZZ  -0.000852   0.000169  -0.000195   0.000027  -0.000717
   29  C  1 XXY  -0.005625   0.005365   0.001271   0.000973   0.000500
   30  C  1 XXZ  -0.003063   0.003231   0.000403   0.000611  -0.000413
   31  C  1 YYX   0.001103  -0.002134   0.000192  -0.003082  -0.001782
   32  C  1 YYZ   0.004207  -0.003457  -0.000140  -0.000648   0.001375
   33  C  1 ZZX  -0.002569   0.002535   0.001348   0.000380   0.000263
   34  C  1 ZZY   0.001384  -0.001545   0.000348  -0.002686  -0.000369
   35  C  1 XYZ  -0.002245   0.001359   0.001948  -0.002165  -0.001832
   36  C  2  S   -0.015420  -0.000792  -0.004980   0.001420  -0.000012
   37  C  2  S    0.366330   0.106675   0.223952  -0.032121   0.032702
   38  C  2  S    0.072425   0.020796   0.044777  -0.007335   0.004205
   39  C  2  S    0.118025   0.048802   0.168610  -0.030039   0.071550
   40  C  2  X   -0.010388  -0.056070   0.063686  -0.120548  -0.069124
   41  C  2  Y   -0.037206   0.095423   0.021573   0.041332  -0.044780
   42  C  2  Z   -0.027176   0.041925   0.032003  -0.066016  -0.029785
   43  C  2  X   -0.011903  -0.073697   0.079198  -0.150894  -0.089265
   44  C  2  Y   -0.031283   0.107861   0.029973   0.050935  -0.049118
   45  C  2  Z   -0.022591   0.044349   0.039989  -0.086102  -0.030374
   46  C  2  X    0.001323  -0.001948   0.009197  -0.049298  -0.056545
   47  C  2  Y   -0.002701   0.009185   0.012675   0.014315  -0.024626
   48  C  2  Z    0.001269   0.006091   0.014918  -0.033461  -0.017147
   49  C  2 XX   -0.000534   0.008324   0.000222   0.000229   0.000153
   50  C  2 YY    0.005048  -0.003707   0.000200   0.001272   0.001019
   51  C  2 ZZ   -0.004514  -0.004616  -0.000422  -0.001502  -0.001172
   52  C  2 XY   -0.004807  -0.006523   0.000865  -0.005734  -0.000051
   53  C  2 XZ    0.003562   0.001674   0.006321  -0.000666  -0.002354
   54  C  2 YZ    0.010773  -0.002548   0.003608  -0.003529   0.002871
   55  C  2 XX    0.001009   0.008992   0.001264   0.002195   0.006137
   56  C  2 YY    0.002609  -0.000515  -0.000516   0.002685  -0.001722
   57  C  2 ZZ   -0.003618  -0.008477  -0.000748  -0.004880  -0.004415
   58  C  2 XY   -0.001493  -0.014536   0.000771  -0.012125  -0.000517
   59  C  2 XZ    0.006278  -0.000575   0.010668  -0.004140   0.000885
   60  C  2 YZ    0.011184  -0.000074   0.009129  -0.006913   0.004539
   61  C  2 XXX  -0.001078   0.000123   0.000070   0.001700  -0.000811
   62  C  2 YYY  -0.004021  -0.001237  -0.001676   0.000640  -0.001792
   63  C  2 ZZZ   0.000854  -0.000684   0.000201   0.001375   0.000591
   64  C  2 XXY   0.007610   0.003204   0.003160   0.002289   0.003717
   65  C  2 XXZ   0.003482   0.000341   0.002145  -0.001874   0.000579
   66  C  2 YYX  -0.002260  -0.002344  -0.001818  -0.003139  -0.000325
   67  C  2 YYZ  -0.004628   0.000577  -0.002415   0.000029  -0.001372
   68  C  2 ZZX   0.003705   0.002179   0.001724   0.000858   0.001413
   69  C  2 ZZY  -0.002215  -0.001545  -0.000912  -0.003149  -0.001312
   70  C  2 XYZ   0.002307  -0.000729   0.002489  -0.000767  -0.001679
   71  C  3  S   -0.002229  -0.004592   0.002944   0.000491   0.002257
   72  C  3  S    0.124882   0.302857  -0.204381   0.023856  -0.071774
   73  C  3  S    0.026915   0.065574  -0.046448   0.004652  -0.020848
   74  C  3  S    0.023357   0.124740  -0.112610  -0.018194   0.012189
   75  C  3  X    0.038361   0.024901   0.101276   0.134625  -0.032894
   76  C  3  Y   -0.053256  -0.060260  -0.003147  -0.033172  -0.133620
   77  C  3  Z    0.018571   0.051188  -0.042044  -0.091696   0.104040
   78  C  3  X    0.045752   0.032690   0.124814   0.172110  -0.047043
   79  C  3  Y   -0.059625  -0.072710   0.004611  -0.049048  -0.141855
   80  C  3  Z    0.017680   0.061657  -0.055521  -0.117896   0.105305
   81  C  3  X    0.002017   0.011121   0.020123   0.048081  -0.024932
   82  C  3  Y   -0.008563  -0.031366   0.028482  -0.018454   0.005786
   83  C  3  Z    0.006508   0.025738  -0.030273  -0.030614  -0.005399
   84  C  3 XX    0.004409   0.007180   0.000656  -0.001497   0.006519
   85  C  3 YY   -0.000890  -0.003322   0.001133   0.001117  -0.005044
   86  C  3 ZZ   -0.003519  -0.003858  -0.001789   0.000380  -0.001475
   87  C  3 XY   -0.005482  -0.005380  -0.000780  -0.002818  -0.002414
   88  C  3 XZ   -0.001845  -0.004493   0.005536   0.000343  -0.003050
   89  C  3 YZ    0.001583  -0.002143   0.003116  -0.000377   0.009706
   90  C  3 XX    0.003797   0.007581   0.000944  -0.000743  -0.002156
   91  C  3 YY   -0.000374  -0.003309   0.002144   0.002386   0.001450
   92  C  3 ZZ   -0.003423  -0.004272  -0.003088  -0.001644   0.000706
   93  C  3 XY   -0.005653  -0.006164  -0.002785  -0.006139  -0.004812
   94  C  3 XZ   -0.000409  -0.003992   0.008055   0.001828   0.001949
   95  C  3 YZ    0.001110  -0.001747   0.001114   0.004994   0.000961
   96  C  3 XXX  -0.000358   0.000666  -0.001097  -0.002568  -0.001329
   97  C  3 YYY   0.000353   0.002537  -0.000987  -0.001303  -0.001634
   98  C  3 ZZZ  -0.000451  -0.000979  -0.000329  -0.000259  -0.000682
   99  C  3 XXY  -0.001576  -0.005327   0.001197  -0.002620   0.002843
  100  C  3 XXZ   0.001135   0.002886  -0.001126   0.000644  -0.001846
  101  C  3 YYX   0.001671   0.002946  -0.000822   0.004018   0.000859
  102  C  3 YYZ  -0.000530  -0.001573   0.001567  -0.000296   0.002762
  103  C  3 ZZX  -0.001191  -0.003840   0.002294  -0.000572   0.000924
  104  C  3 ZZY   0.001103   0.001923   0.000127   0.004368  -0.000651
  105  C  3 XYZ   0.000013   0.000136  -0.002817  -0.001915  -0.000032
  106  O  4  S   -0.000152  -0.001063   0.001274  -0.000872   0.003577
  107  O  4  S   -0.097217  -0.165618   0.120107  -0.029656   0.163718
  108  O  4  S   -0.025934  -0.045902   0.034383  -0.008702   0.049089
  109  O  4  S   -0.065487  -0.140407   0.114613  -0.025499   0.172943
  110  O  4  X    0.008369   0.011430   0.051758   0.122518  -0.075887
  111  O  4  Y   -0.006605  -0.040223   0.055082  -0.069063   0.179804
  112  O  4  Z   -0.001254   0.035196  -0.069563  -0.046362  -0.149854
  113  O  4  X    0.010000   0.013931   0.066775   0.156235  -0.096315
  114  O  4  Y   -0.005750  -0.045948   0.067019  -0.087689   0.222734
  115  O  4  Z   -0.003445   0.040776  -0.085530  -0.060873  -0.186666
  116  O  4  X    0.004778   0.006601   0.035876   0.093645  -0.059856
  117  O  4  Y   -0.005650  -0.025593   0.037832  -0.054970   0.141595
  118  O  4  Z    0.000799   0.022618  -0.047591  -0.034393  -0.118675
  119  O  4 XX    0.000307  -0.000753   0.002181  -0.000027   0.004569
  120  O  4 YY    0.000118   0.000504  -0.000864   0.002891  -0.003409
  121  O  4 ZZ   -0.000424   0.000248  -0.001316  -0.002864  -0.001160
  122  O  4 XY   -0.000420  -0.000440  -0.001907  -0.003802   0.002576
  123  O  4 XZ    0.000317   0.000484   0.001363   0.002763  -0.002585
  124  O  4 YZ    0.000531  -0.001337   0.003083  -0.000020   0.008064
  125  O  4 XX    0.000776  -0.001831   0.005523   0.000205   0.012731
  126  O  4 YY   -0.000001   0.000980  -0.002323   0.007719  -0.009203
  127  O  4 ZZ   -0.000775   0.000851  -0.003199  -0.007924  -0.003528
  128  O  4 XY   -0.000676  -0.000341  -0.005128  -0.009854   0.006901
  129  O  4 XZ    0.000790   0.001648   0.002809   0.006990  -0.007027
  130  O  4 YZ    0.001882  -0.001840   0.006809  -0.000672   0.021712
  131  O  4 XXX  -0.000171  -0.000166  -0.001008  -0.001995   0.001877
  132  O  4 YYY  -0.000124   0.000105  -0.000180  -0.001505   0.000263
  133  O  4 ZZZ   0.000004  -0.000105  -0.000255  -0.001602   0.001510
  134  O  4 XXY  -0.000358   0.000059  -0.001017   0.000573  -0.002938
  135  O  4 XXZ   0.000409  -0.000030   0.001481   0.001387   0.001923
  136  O  4 YYX   0.000294   0.000123   0.001179   0.002177  -0.000855
  137  O  4 YYZ  -0.000414   0.000171  -0.001138   0.000763  -0.003948
  138  O  4 ZZX  -0.000065   0.000100   0.000174   0.000499  -0.001663
  139  O  4 ZZY   0.000523  -0.000199   0.001259   0.001446   0.002585
  140  O  4 XYZ  -0.000195  -0.000177  -0.001078  -0.002359   0.002132
  141  H  5  S    0.040498  -0.067187  -0.047123  -0.048308  -0.069550
  142  H  5  S    0.027468  -0.080318  -0.056886  -0.080756  -0.101934
  143  H  5  S    0.001799  -0.011764  -0.013381  -0.019164  -0.034466
  144  H  5  X   -0.002495   0.005122   0.004468   0.002776   0.005063
  145  H  5  Y    0.002525  -0.003614  -0.001406  -0.003864  -0.004006
  146  H  5  Z    0.000389   0.000219   0.001278  -0.001286   0.000159
  147  H  5  X    0.004295   0.003726   0.003118   0.005571   0.004306
  148  H  5  Y   -0.003709  -0.001789   0.001316  -0.005905  -0.003569
  149  H  5  Z   -0.000042   0.000690   0.002316  -0.001988   0.001594
  150  H  5 XX   -0.000400  -0.000353  -0.001161   0.000275  -0.000646
  151  H  5 YY    0.000139  -0.000145   0.000840  -0.001018  -0.000350
  152  H  5 ZZ    0.000261   0.000497   0.000321   0.000743   0.000996
  153  H  5 XY    0.000455   0.000782   0.000390   0.001655   0.001656
  154  H  5 XZ   -0.000046   0.000040  -0.000670   0.000754   0.000008
  155  H  5 YZ    0.000234  -0.000155   0.000559  -0.000608   0.000067
  156  H  6  S    0.042211  -0.056976  -0.074017   0.067925   0.020679
  157  H  6  S    0.029759  -0.057547  -0.105837   0.112674   0.036062
  158  H  6  S   -0.000385  -0.013722  -0.020075   0.027745   0.014120
  159  H  6  X    0.002294  -0.004075  -0.005817   0.004484   0.000149
  160  H  6  Y    0.001858  -0.001125  -0.001611   0.003205   0.002204
  161  H  6  Z    0.002424  -0.002767  -0.004275   0.004092   0.001787
  162  H  6  X   -0.003717   0.000737  -0.007574   0.008062  -0.000599
  163  H  6  Y   -0.001254   0.000502  -0.000858   0.005212   0.004097
  164  H  6  Z   -0.002654   0.000660  -0.005143   0.007059   0.003516
  165  H  6 XX   -0.000472  -0.000281  -0.000762   0.000129  -0.000802
  166  H  6 YY    0.000475   0.000146   0.000887  -0.000333   0.000380
  167  H  6 ZZ   -0.000004   0.000135  -0.000125   0.000204   0.000422
  168  H  6 XY   -0.000110   0.000062  -0.000716   0.001534   0.000758
  169  H  6 XZ   -0.000346  -0.000205  -0.001622   0.001644   0.000340
  170  H  6 YZ    0.000323  -0.000037  -0.000522   0.001411   0.001050
  171  H  7  S    0.048412   0.024688   0.091609  -0.082115  -0.044380
  172  H  7  S    0.039801   0.042980   0.117600  -0.114663  -0.079977
  173  H  7  S    0.000415   0.002800   0.029066  -0.032526  -0.013703
  174  H  7  X   -0.002866  -0.002971  -0.006428   0.005205   0.003004
  175  H  7  Y   -0.001701   0.000774  -0.002313   0.003852   0.001260
  176  H  7  Z   -0.002531  -0.000904  -0.005089   0.004681   0.003150
  177  H  7  X    0.002091  -0.009308  -0.003565   0.000955   0.007396
  178  H  7  Y    0.000967   0.002822  -0.001629   0.006456   0.001002
  179  H  7  Z    0.001932  -0.002736  -0.003638   0.002841   0.006285
  180  H  7 XX   -0.000192   0.001556   0.000537   0.000303  -0.000401
  181  H  7 YY    0.000395  -0.001094  -0.000599   0.000134   0.000623
  182  H  7 ZZ   -0.000203  -0.000462   0.000063  -0.000437  -0.000222
  183  H  7 XY   -0.000346  -0.000402   0.000555  -0.001676  -0.000431
  184  H  7 XZ   -0.000201   0.001014   0.001367  -0.001135  -0.001541
  185  H  7 YZ    0.000351  -0.000581   0.000560  -0.001537  -0.000415
  186  H  8  S    0.017636   0.070536  -0.097430  -0.082069   0.055681
  187  H  8  S    0.024728   0.093914  -0.135512  -0.118098   0.099845
  188  H  8  S   -0.000188   0.010647  -0.031146  -0.041344   0.038206
  189  H  8  X    0.001799   0.005943  -0.006536  -0.005170   0.004786
  190  H  8  Y   -0.000346   0.000400  -0.002148  -0.003371   0.000289
  191  H  8  Z   -0.000876  -0.003970   0.006595   0.005685  -0.004108
  192  H  8  X    0.003715   0.006611  -0.005144  -0.003495   0.012016
  193  H  8  Y   -0.000491   0.000549  -0.002648  -0.002509  -0.003067
  194  H  8  Z   -0.002140  -0.004415   0.005986   0.003071  -0.006078
  195  H  8 XX    0.000708   0.001090  -0.000167   0.000084   0.001586
  196  H  8 YY   -0.000397  -0.000921   0.000923   0.000833  -0.001664
  197  H  8 ZZ   -0.000311  -0.000169  -0.000756  -0.000917   0.000078
  198  H  8 XY   -0.000341  -0.000046  -0.001019  -0.001729   0.000340
  199  H  8 XZ   -0.000543  -0.001318   0.001903   0.001845  -0.002132
  200  H  8 YZ    0.000246   0.000025   0.000823   0.000919   0.000741

                     11         12         13         14         15
                   -0.6254    -0.5570    -0.5146    -0.4322    -0.3940
                     A          A          A          A          A   
    1  C  1  S    0.000399   0.000020   0.000061   0.000742  -0.000299
    2  C  1  S   -0.007907   0.010603   0.041375   0.019245  -0.002713
    3  C  1  S   -0.002591   0.002469   0.008928   0.004337  -0.000638
    4  C  1  S   -0.042517   0.003186  -0.004486   0.029048   0.000274
    5  C  1  X   -0.035593   0.169489   0.003607  -0.038719  -0.078059
    6  C  1  Y    0.175151  -0.000072   0.053528   0.031276  -0.103634
    7  C  1  Z    0.092747   0.084839   0.041782   0.004172   0.154486
    8  C  1  X   -0.041892   0.209155   0.004545  -0.058595  -0.109462
    9  C  1  Y    0.203805  -0.000810   0.061464   0.038654  -0.146311
   10  C  1  Z    0.105425   0.103840   0.049692   0.001500   0.209008
   11  C  1  X   -0.015171   0.115449   0.001860  -0.058608  -0.085787
   12  C  1  Y    0.072660  -0.002468   0.012333   0.032406  -0.111331
   13  C  1  Z    0.037301   0.053619   0.020999  -0.004071   0.164011
   14  C  1 XX   -0.011462  -0.000088  -0.003377  -0.002145   0.000876
   15  C  1 YY    0.009559   0.005930   0.003770  -0.000884  -0.010462
   16  C  1 ZZ    0.001903  -0.005843  -0.000393   0.003028   0.009586
   17  C  1 XY    0.002459  -0.013777  -0.001716   0.007099  -0.004614
   18  C  1 XZ   -0.004957  -0.009011  -0.002603   0.003506  -0.003610
   19  C  1 YZ    0.008423  -0.002544   0.002805   0.003492   0.005056
   20  C  1 XX   -0.011058   0.000587  -0.003056  -0.002730   0.002643
   21  C  1 YY    0.008456   0.008146   0.000619  -0.008838  -0.024051
   22  C  1 ZZ    0.002602  -0.008732   0.002437   0.011568   0.021408
   23  C  1 XY    0.004661  -0.020308  -0.000248   0.022859  -0.006399
   24  C  1 XZ   -0.004366  -0.012439  -0.003814   0.014473  -0.005591
   25  C  1 YZ    0.004958  -0.005869   0.003544   0.006111   0.011152
   26  C  1 XXX   0.000799   0.000878   0.000402  -0.001233   0.000666
   27  C  1 YYY   0.001474   0.000523   0.000258  -0.000280  -0.005431
   28  C  1 ZZZ  -0.002195  -0.001815  -0.000901   0.000735   0.001212
   29  C  1 XXY  -0.002028  -0.001618  -0.001358   0.000060   0.000908
   30  C  1 XXZ  -0.001435   0.002228  -0.000506  -0.002015  -0.000857
   31  C  1 YYX  -0.001394  -0.000996  -0.000155   0.001315  -0.001023
   32  C  1 YYZ   0.004381   0.000208   0.001714   0.001029  -0.000769
   33  C  1 ZZX   0.000323  -0.000181  -0.000384   0.000339   0.000130
   34  C  1 ZZY   0.000050   0.000917   0.001012   0.000316   0.006379
   35  C  1 XYZ  -0.000877   0.000624  -0.000469   0.000394  -0.003213
   36  C  2  S   -0.001016   0.000446  -0.000231  -0.001350  -0.000891
   37  C  2  S    0.057386  -0.036139  -0.006589  -0.076512  -0.002349
   38  C  2  S    0.012131  -0.007574  -0.001515  -0.012324  -0.000453
   39  C  2  S    0.019718  -0.050476  -0.006137  -0.187167   0.016398
   40  C  2  X    0.009806  -0.075122  -0.039374   0.108766  -0.084432
   41  C  2  Y   -0.152004  -0.029477  -0.054637  -0.070836  -0.100121
   42  C  2  Z   -0.103691  -0.060539  -0.051989   0.015394   0.156570
   43  C  2  X    0.014965  -0.095433  -0.048967   0.159896  -0.111693
   44  C  2  Y   -0.183927  -0.039059  -0.064016  -0.103229  -0.142470
   45  C  2  Z   -0.125111  -0.076381  -0.061061   0.028674   0.220368
   46  C  2  X    0.003097  -0.060396  -0.031626   0.140775  -0.091033
   47  C  2  Y   -0.060851  -0.009777  -0.047603  -0.060139  -0.109708
   48  C  2  Z   -0.048520  -0.038637  -0.052404   0.020215   0.163146
   49  C  2 XX   -0.009760  -0.000132  -0.006590  -0.003860  -0.000440
   50  C  2 YY    0.007162   0.004788   0.008120  -0.000633   0.010104
   51  C  2 ZZ    0.002598  -0.004656  -0.001530   0.004494  -0.009664
   52  C  2 XY    0.003395  -0.011954  -0.003541   0.009437   0.004361
   53  C  2 XZ   -0.002366  -0.008008  -0.006771   0.002350   0.003600
   54  C  2 YZ    0.007840  -0.002495   0.003683   0.003148  -0.005596
   55  C  2 XX   -0.008087   0.003548  -0.007440  -0.007314  -0.001608
   56  C  2 YY    0.005192   0.005104   0.007110  -0.008568   0.019112
   57  C  2 ZZ    0.002896  -0.008652   0.000329   0.015882  -0.017504
   58  C  2 XY    0.008966  -0.018261  -0.004234   0.032196   0.013535
   59  C  2 XZ    0.001918  -0.013574  -0.007732   0.007600   0.006977
   60  C  2 YZ    0.004277  -0.008479   0.003892   0.003073  -0.009736
   61  C  2 XXX  -0.000949  -0.002540   0.000760   0.000733   0.000096
   62  C  2 YYY  -0.000617  -0.001644   0.000685   0.001308  -0.005633
   63  C  2 ZZZ   0.003163   0.002244   0.000728  -0.000462   0.000804
   64  C  2 XXY   0.000820   0.002223   0.000661  -0.004044   0.000901
   65  C  2 XXZ   0.001023  -0.002303   0.000734   0.002045  -0.000019
   66  C  2 YYX   0.002809   0.002476  -0.000991   0.001392  -0.000826
   67  C  2 YYZ  -0.005266  -0.000707  -0.001710  -0.001425  -0.001059
   68  C  2 ZZX  -0.001536   0.000931  -0.000029  -0.002375   0.000698
   69  C  2 ZZY   0.000008  -0.000017  -0.001580   0.002289   0.006656
   70  C  2 XYZ   0.001059   0.001899  -0.001300   0.000601  -0.002996
   71  C  3  S   -0.001707   0.000605  -0.000175  -0.002621  -0.001279
   72  C  3  S   -0.010253   0.059954   0.007979  -0.019498  -0.012285
   73  C  3  S    0.001444   0.012139   0.001774  -0.005012  -0.001681
   74  C  3  S   -0.051615   0.045515   0.010951   0.085730  -0.035226
   75  C  3  X   -0.077623   0.026073   0.070376  -0.099189   0.017049
   76  C  3  Y    0.056580  -0.085795   0.089810   0.027157   0.010168
   77  C  3  Z   -0.079379  -0.006999   0.107321   0.036100  -0.026294
   78  C  3  X   -0.104024   0.033384   0.095912  -0.118207   0.021936
   79  C  3  Y    0.052718  -0.104234   0.124916   0.033499   0.001869
   80  C  3  Z   -0.091235  -0.021559   0.145579   0.044021  -0.023073
   81  C  3  X   -0.039077   0.012663   0.065808   0.019877   0.024485
   82  C  3  Y   -0.005568  -0.032686   0.083088  -0.035056  -0.003344
   83  C  3  Z   -0.010573  -0.023719   0.095881   0.013613  -0.019969
   84  C  3 XX   -0.007257   0.001370  -0.002912  -0.005223  -0.006762
   85  C  3 YY    0.002837  -0.005982   0.017182  -0.009903   0.005683
   86  C  3 ZZ    0.004419   0.004612  -0.014270   0.015126   0.001079
   87  C  3 XY   -0.001581   0.001443   0.006122   0.024872  -0.001197
   88  C  3 XZ    0.002002  -0.004897  -0.009032  -0.017522   0.006421
   89  C  3 YZ   -0.003537   0.000923   0.003129  -0.005168  -0.006171
   90  C  3 XX   -0.005834  -0.000871  -0.003979  -0.002521  -0.009870
   91  C  3 YY   -0.000901  -0.007365   0.033494  -0.013936   0.010511
   92  C  3 ZZ    0.006735   0.008237  -0.029515   0.016457  -0.000641
   93  C  3 XY   -0.001171  -0.000252   0.012555   0.026461  -0.003442
   94  C  3 XZ   -0.001748  -0.002684  -0.015156  -0.022594   0.011876
   95  C  3 YZ    0.001930  -0.001885   0.004214  -0.009300  -0.012005
   96  C  3 XXX   0.000914  -0.001523  -0.003006  -0.003415  -0.001870
   97  C  3 YYY  -0.001930  -0.001951   0.006148  -0.002151  -0.001730
   98  C  3 ZZZ   0.001064  -0.001870   0.003764  -0.001733  -0.001685
   99  C  3 XXY   0.002062  -0.000993  -0.002159   0.000439   0.000157
  100  C  3 XXZ  -0.000641   0.000591  -0.000905   0.001755   0.001630
  101  C  3 YYX  -0.001013   0.002485   0.001758   0.002659   0.002327
  102  C  3 YYZ  -0.000787   0.001919  -0.004144   0.000570   0.000631
  103  C  3 ZZX  -0.000213  -0.000442   0.002274   0.001923   0.000182
  104  C  3 ZZY   0.000528   0.003610  -0.006090   0.002447   0.002164
  105  C  3 XYZ   0.004009  -0.001705  -0.003304  -0.004616  -0.002785
  106  O  4  S   -0.001656   0.000331  -0.000129  -0.000429  -0.000914
  107  O  4  S   -0.067618   0.015334   0.000309  -0.001982   0.012847
  108  O  4  S   -0.020641   0.005180   0.000203  -0.000310   0.003442
  109  O  4  S   -0.072125   0.018813  -0.000153   0.000472   0.019284
  110  O  4  X   -0.066630   0.069438   0.132701   0.262095   0.024120
  111  O  4  Y   -0.112219  -0.017380   0.157180  -0.065631  -0.041483
  112  O  4  Z    0.067577  -0.113696   0.165190  -0.114990   0.011088
  113  O  4  X   -0.085984   0.087680   0.171279   0.331789   0.030413
  114  O  4  Y   -0.141445  -0.023278   0.203794  -0.083186  -0.053581
  115  O  4  Z    0.083171  -0.145083   0.213932  -0.145699   0.014250
  116  O  4  X   -0.054425   0.063142   0.123929   0.278037   0.025774
  117  O  4  Y   -0.092159  -0.016803   0.147154  -0.065893  -0.043605
  118  O  4  Z    0.053756  -0.100677   0.153670  -0.124757   0.012599
  119  O  4 XX   -0.003093   0.001288   0.000732   0.000358  -0.000828
  120  O  4 YY    0.003298   0.001738  -0.007378   0.000932   0.000958
  121  O  4 ZZ   -0.000205  -0.003026   0.006646  -0.001290  -0.000129
  122  O  4 XY    0.001402  -0.001085  -0.002841  -0.001957  -0.000281
  123  O  4 XZ   -0.001277   0.000384   0.003294   0.001415   0.000608
  124  O  4 YZ   -0.004202   0.002476  -0.000994   0.000282  -0.001077
  125  O  4 XX   -0.008349   0.003772   0.002434   0.001959  -0.002913
  126  O  4 YY    0.009471   0.005365  -0.023546   0.003733   0.003264
  127  O  4 ZZ   -0.001122  -0.009136   0.021112  -0.005693  -0.000351
  128  O  4 XY    0.004093  -0.003138  -0.008876  -0.008550  -0.001034
  129  O  4 XZ   -0.003221   0.001263   0.010562   0.006751   0.001398
  130  O  4 YZ   -0.011530   0.007268  -0.003004   0.002762  -0.004440
  131  O  4 XXX   0.000781  -0.000317  -0.002728  -0.001607  -0.000233
  132  O  4 YYY  -0.000908  -0.001457   0.004033  -0.001075  -0.000281
  133  O  4 ZZZ  -0.000669  -0.000907   0.002252  -0.001169  -0.000342
  134  O  4 XXY   0.002112  -0.000233  -0.001681   0.000782   0.000817
  135  O  4 XXZ  -0.001842   0.001714  -0.000588   0.001782  -0.000301
  136  O  4 YYX  -0.000912   0.000879   0.001409   0.001500   0.000019
  137  O  4 YYZ   0.002739  -0.000497  -0.002434  -0.000214   0.000760
  138  O  4 ZZX  -0.000136  -0.000454   0.002250   0.000657   0.000294
  139  O  4 ZZY  -0.000894   0.002188  -0.003730   0.000660  -0.000440
  140  O  4 XYZ   0.000452  -0.000589  -0.001208  -0.001520  -0.000318
  141  H  5  S   -0.087319   0.107903  -0.007923  -0.041282   0.001552
  142  H  5  S   -0.134859   0.165509  -0.012238  -0.049181   0.002277
  143  H  5  S   -0.046989   0.066272  -0.007225  -0.036238   0.002854
  144  H  5  X    0.007865  -0.006252   0.001063   0.002403  -0.001943
  145  H  5  Y   -0.003188   0.006453  -0.000034  -0.000953  -0.002433
  146  H  5  Z    0.001886   0.000932   0.000771   0.000598   0.003706
  147  H  5  X    0.010421  -0.005241   0.001916  -0.004355  -0.005696
  148  H  5  Y   -0.001308   0.007601   0.000899   0.000581  -0.007632
  149  H  5  Z    0.003573   0.002546   0.001755  -0.001750   0.009903
  150  H  5 XX   -0.002057   0.000793  -0.000438  -0.000320   0.001108
  151  H  5 YY    0.000926   0.000433   0.000233   0.000278  -0.001453
  152  H  5 ZZ    0.001131  -0.001225   0.000205   0.000042   0.000345
  153  H  5 XY    0.001681  -0.002170   0.000311   0.000098   0.000292
  154  H  5 XZ   -0.000561  -0.000261  -0.000373  -0.000141  -0.001284
  155  H  5 YZ    0.000840   0.000061   0.000172   0.000162   0.001011
  156  H  6  S   -0.056498  -0.128037  -0.025586   0.026942  -0.001198
  157  H  6  S   -0.088371  -0.198958  -0.042649   0.017976  -0.011668
  158  H  6  S   -0.028772  -0.077832  -0.028474   0.024262  -0.002496
  159  H  6  X   -0.005962  -0.007376  -0.001843   0.000401  -0.002158
  160  H  6  Y    0.000942  -0.003874   0.000071   0.000894  -0.002441
  161  H  6  Z   -0.002455  -0.006365  -0.000815   0.000896   0.003597
  162  H  6  X   -0.008976  -0.005369  -0.004244  -0.006283  -0.007845
  163  H  6  Y    0.004630  -0.005425   0.000786  -0.000655  -0.008374
  164  H  6  Z   -0.002534  -0.007627  -0.001082  -0.002829   0.007899
  165  H  6 XX   -0.001936  -0.000756  -0.000698  -0.000206  -0.001127
  166  H  6 YY    0.001616   0.001015   0.000508   0.000216  -0.000749
  167  H  6 ZZ    0.000320  -0.000259   0.000189  -0.000010   0.001875
  168  H  6 XY    0.000030  -0.001263  -0.000119  -0.000233  -0.001242
  169  H  6 XZ   -0.001464  -0.002066  -0.000571  -0.000197   0.000217
  170  H  6 YZ    0.000811  -0.000964   0.000258   0.000023  -0.000015
  171  H  7  S   -0.049952  -0.089028  -0.063019   0.042026  -0.001160
  172  H  7  S   -0.084021  -0.131109  -0.101915   0.049998  -0.011280
  173  H  7  S   -0.026577  -0.054847  -0.036781   0.036268  -0.000136
  174  H  7  X    0.005103   0.005913   0.003928  -0.000663  -0.001697
  175  H  7  Y   -0.000953   0.001419   0.001278  -0.002290  -0.002234
  176  H  7  Z    0.001863   0.003985   0.002993  -0.002140   0.003792
  177  H  7  X    0.009426   0.004292   0.005176   0.006705  -0.002629
  178  H  7  Y   -0.003430   0.000189   0.001609  -0.004306  -0.006896
  179  H  7  Z    0.002632   0.002037   0.002075   0.002915   0.013554
  180  H  7 XX   -0.001859  -0.001219  -0.000530  -0.000856   0.000776
  181  H  7 YY    0.001421   0.001202   0.000631   0.000597   0.001091
  182  H  7 ZZ    0.000438   0.000016  -0.000100   0.000259  -0.001868
  183  H  7 XY    0.000245  -0.000404  -0.000905   0.000449   0.000890
  184  H  7 XZ   -0.001397  -0.001282  -0.000821  -0.000073  -0.000863
  185  H  7 YZ    0.000645   0.000261  -0.000393   0.000514  -0.000202
  186  H  8  S   -0.009500   0.017492   0.004120   0.100526  -0.033412
  187  H  8  S   -0.025081   0.042257   0.008611   0.196449  -0.059607
  188  H  8  S   -0.012812   0.019117   0.004891   0.139806  -0.028655
  189  H  8  X   -0.002163   0.001586   0.001725   0.005155  -0.001252
  190  H  8  Y    0.000475  -0.001219   0.001898   0.001161  -0.001670
  191  H  8  Z   -0.000416  -0.001082   0.002042  -0.004509   0.002141
  192  H  8  X   -0.008170   0.007030   0.003806   0.008878  -0.002584
  193  H  8  Y    0.000876  -0.002362   0.003995   0.005142  -0.000276
  194  H  8  Z    0.001160  -0.005122   0.003562  -0.010123   0.001421
  195  H  8 XX   -0.001450   0.000880   0.000908   0.000700   0.000140
  196  H  8 YY    0.000656  -0.000698   0.000282  -0.001102   0.000313
  197  H  8 ZZ    0.000794  -0.000181  -0.001190   0.000402  -0.000453
  198  H  8 XY    0.000271  -0.000581   0.000734   0.000871  -0.000763
  199  H  8 XZ    0.000576  -0.000761   0.000154  -0.001621   0.000656
  200  H  8 YZ   -0.000734   0.000775  -0.000269   0.000198   0.000361

                     16         17         18         19         20
                    0.1135     0.1313     0.1597     0.1712     0.1815
                     A          A          A          A          A   
    1  C  1  S    0.008054   0.004460  -0.001697   0.007776   0.012054
    2  C  1  S    0.132785   0.072829  -0.048335   0.109949   0.132438
    3  C  1  S    0.027398   0.011181  -0.009061   0.020752   0.013855
    4  C  1  S    1.150153   0.957642  -1.041121   1.071254   2.821308
    5  C  1  X    0.031218  -0.059138  -0.032120  -0.065453   0.019364
    6  C  1  Y    0.043072  -0.088617   0.053914  -0.021913  -0.049276
    7  C  1  Z   -0.062583   0.126442   0.005904  -0.007871  -0.065820
    8  C  1  X    0.035062  -0.050808  -0.050084  -0.147641   0.041653
    9  C  1  Y   -0.000138  -0.129857   0.148349  -0.055151  -0.134040
   10  C  1  Z   -0.088595   0.137492   0.060410  -0.059249  -0.129512
   11  C  1  X    0.128744  -0.204805   0.013240  -0.552871   0.070105
   12  C  1  Y   -0.000667  -0.389682   0.411042  -0.219012  -0.159207
   13  C  1  Z   -0.418875   0.515001   0.172424  -0.254942  -0.253264
   14  C  1 XX   -0.001841  -0.002061  -0.001704   0.001951   0.002574
   15  C  1 YY   -0.005411   0.010152   0.001148   0.001333  -0.003182
   16  C  1 ZZ    0.007251  -0.008091   0.000556  -0.003285   0.000609
   17  C  1 XY    0.002728   0.006281  -0.005015  -0.001419  -0.005573
[...]
    2     C                12.00000
    3     C                12.00000
    4     O                15.99491
    5     H                 1.00782
    6     H                 1.00782
    7     H                 1.00782
    8     H                 1.00782

 MODES 2 TO 7 ARE TAKEN AS ROTATIONS AND TRANSLATIONS.

 ANALYZING SYMMETRY OF NORMAL MODES...

     FREQUENCIES IN CM**-1, IR INTENSITIES IN DEBYE**2/AMU-ANGSTROM**2,
     REDUCED MASSES IN AMU.

                          1           2           3           4           5
       FREQUENCY:       216.28 I      6.96        1.77        0.81        2.48  
        SYMMETRY:         A           A           A           A           A   
    REDUCED MASS:      1.87341     3.33318     4.90501     8.03601     8.04812
    IR INTENSITY:      0.14373     0.08059     0.01264     0.00171     0.03419

  1   C            X  0.00432524 -0.02628309  0.17358601 -0.05863403 -0.06126985
                   Y  0.05203023  0.07816216  0.01797545 -0.00700186  0.01243482
                   Z -0.07256096  0.01977677  0.08595071  0.08566493  0.03342466
  2   C            X -0.02474561  0.05626561  0.11750569 -0.06419364  0.00761776
                   Y -0.03485264  0.13359331  0.02600354 -0.01608400  0.00521612
                   Z  0.06370493 -0.06083024  0.06692695  0.09973241  0.05252578
  3   C            X  0.04790136  0.03115937  0.07487917 -0.07284848  0.07267709
                   Y  0.06172658  0.10517914 -0.03241371 -0.02679777  0.09271422
                   Z  0.07839740  0.04816647  0.04922303  0.11901764  0.04651164
  4   O            X -0.02612612 -0.10440875  0.03172549 -0.08711782  0.15439081
                   Y -0.07337049  0.03992271 -0.05081607 -0.01865449  0.11493224
                   Z -0.07483538 -0.01125145  0.03319443  0.13100728  0.06152333
  5   H            X -0.06104675 -0.00776108  0.20342889 -0.05250582 -0.10697430
                   Y -0.03504143  0.09949187  0.06099392  0.00085595 -0.05202523
                   Z  0.02338776 -0.06297909  0.09836700  0.07182269  0.03849172
  6   H            X  0.09365285 -0.11525251  0.19065806 -0.06017781 -0.07300199
                   Y  0.20760171  0.00976761 -0.03174060 -0.00712430  0.08283343
                   Z -0.26606669  0.16950905  0.08941573  0.08771485  0.01247049
  7   H            X -0.12881701  0.14560522  0.10067787 -0.06257386  0.01892087
                   Y -0.23331658  0.20214879  0.07595768 -0.01593705 -0.06552997
                   Z  0.30100267 -0.21073799  0.06358361  0.09756397  0.07344378
  8   H            X  0.18102807  0.14524793  0.08435381 -0.06548345  0.04255904
                   Y  0.28801380  0.14776869 -0.05889312 -0.04296064  0.13757720
                   Z  0.30079114  0.18891561  0.05129427  0.12203943  0.02733880

 TRANS. SAYVETZ    X -0.00263223 -0.76715299  5.48274698 -3.98418031  2.57834346
                   Y  0.00233146  4.90454544 -0.62733464 -0.96265627  3.26637316
                   Z -0.00056382 -0.00923956  3.26117914  6.13053722  2.72653732
               TOTAL  0.00356122  4.96418926  6.41009770  7.37454313  4.97504316

   ROT. SAYVETZ    X  0.01694914 -1.99963583 -3.03219145  2.38156943  1.84599940
                   Y -0.00981528  5.27405408 -1.28541617  1.42486018 -0.20173204
                   Z -0.00618145  4.68367618  9.34816648  1.77286444-14.06739649
               TOTAL  0.02053833  7.33150820  9.91134180  3.29319720 14.18943457

                          6           7           8           9          10
       FREQUENCY:         4.91        7.52      306.65      392.82      716.10  
        SYMMETRY:         A           A           A           A           A   
    REDUCED MASS:      4.72936     2.98879     2.60273     1.84725     3.06124
    IR INTENSITY:      0.05208     0.03353     0.03430     0.16921     0.30149

  1   C            X -0.02059604  0.09156983 -0.08604870 -0.04999283  0.03349255
                   Y -0.01115197  0.13498799  0.11545993 -0.00153355 -0.03909783
                   Z  0.16731810 -0.05102460 -0.02784889  0.02938313 -0.02747025
  2   C            X -0.05259306 -0.05506011  0.04882534  0.11206829  0.02866069
                   Y  0.04201066  0.06629156  0.04865245  0.01742213 -0.12083180
                   Z  0.07800327  0.04408449  0.08793842  0.01704493  0.14449254
  3   C            X -0.04337878 -0.08544411 -0.01395663  0.07301834  0.02226569
                   Y  0.04760598  0.02089221 -0.06106737 -0.02394553  0.06114811
                   Z -0.05799541 -0.04332001  0.01519881 -0.08190736 -0.03133499
  4   O            X  0.00791845 -0.01446377  0.06032153 -0.08590803 -0.07384961
                   Y -0.00927008  0.08861481 -0.09132853  0.03559177  0.07204320
                   Z -0.13463346  0.02855660 -0.03044356  0.01751565 -0.03414222
  5   H            X -0.02741394  0.11211531 -0.09821259 -0.25881856  0.12239017
                   Y -0.01502181  0.16807783  0.08351083 -0.28703209  0.06228653
                   Z  0.26494476  0.01615523 -0.29658218  0.19311743 -0.38613617
  6   H            X  0.01353951  0.19498207 -0.23863932 -0.02425394 -0.09884486
                   Y -0.05243571  0.16036919  0.20837699  0.27565401 -0.04858643
                   Z  0.14446095 -0.19734255  0.11899349 -0.14788040  0.14491729
  7   H            X -0.08686931 -0.15844789  0.13885528 -0.01041497  0.19208808
                   Y  0.08337993  0.04096914  0.09883898 -0.19540772 -0.01504049
                   Z  0.10152146  0.19043742 -0.06182345  0.27882961 -0.11735939
  8   H            X -0.08677632 -0.17877393 -0.15101155  0.04760222 -0.04889242
                   Y  0.10774711 -0.08024635 -0.16697836 -0.26007296  0.03423861
                   Z -0.08706377 -0.17972490 -0.17460550 -0.17946338 -0.11992423

 TRANS. SAYVETZ    X -1.46114713 -0.84891958 -0.00106165 -0.00077491 -0.00014498
                   Y  0.91793918  4.37487951  0.00124784  0.00209198  0.00010192
                   Z  0.52164159 -0.31816991 -0.00073929  0.00014437 -0.00010096
               TOTAL  1.80268501  4.46782579  0.00179743  0.00223556  0.00020395

   ROT. SAYVETZ    X-16.07801385  4.32619913  0.00798407  0.00235673  0.00091349
                   Y -9.74950266 -3.58710972 -0.00468824  0.00520242  0.00066882
                   Z -1.24808394  7.24473016 -0.00391707  0.00666389 -0.00049220
               TOTAL 18.84444334  9.16894052  0.01005327  0.00877649  0.00123452

                         11          12          13          14          15
       FREQUENCY:       917.66      956.73      966.56     1010.37     1143.32  
        SYMMETRY:         A           A           A           A           A   
    REDUCED MASS:      1.29067     2.08011     1.57938     1.08425     1.79834
    IR INTENSITY:      0.01106     1.07095     0.57160     0.55600     0.06577

  1   C            X  0.05119462 -0.07730250  0.02363547 -0.00076586  0.05761951
                   Y -0.00730301  0.02684715  0.09522509 -0.00945930 -0.02717158
                   Z  0.02403335  0.05956773 -0.09309281  0.00275593  0.00870175
  2   C            X  0.00614730 -0.07761175 -0.05698116  0.03817703 -0.11078334
                   Y -0.00666488  0.00240420 -0.02574190  0.03698219  0.00059608
                   Z  0.00036079  0.01517439  0.04871486 -0.05539285 -0.03630809
  3   C            X -0.04989377  0.13022852  0.06586428 -0.01051981  0.11462287
                   Y -0.07377872 -0.06693736 -0.03537699  0.01100221  0.06253182
                   Z -0.08394244 -0.08839710 -0.04879552  0.01065819  0.06348730
  4   O            X  0.01348198 -0.01562184 -0.00918692  0.00192569 -0.01246127
                   Y  0.02252421  0.00049947  0.00208502  0.00369933 -0.02558219
                   Z  0.02239763  0.02429678  0.01367795 -0.00619738 -0.00772574
  5   H            X -0.11244651  0.23447915 -0.14942496  0.14482450 -0.05891519
                   Y -0.25284705  0.46158159 -0.11540722  0.17827120 -0.19884963
                   Z -0.29476488 -0.16404523  0.43720949 -0.28792251 -0.19095009
  6   H            X -0.19285073  0.12101145 -0.19788926 -0.19211306 -0.11179541
                   Y  0.31008445 -0.03092278 -0.35541458 -0.26827651  0.20045847
                   Z  0.16888531 -0.15789675  0.42854279  0.38158323  0.10209003
  7   H            X -0.21633425 -0.09369618 -0.03326651 -0.25802614 -0.29575904
                   Y  0.31174359  0.04260834  0.03805801 -0.39488854  0.31156063
                   Z  0.13532154  0.00665272 -0.01901276  0.54624248  0.04870628
  8   H            X  0.21916875  0.28012122  0.13918128 -0.04547846 -0.06762807
                   Y  0.31803078 -0.03248183 -0.00648620 -0.03256137 -0.33520804
                   Z  0.34421270  0.09224400  0.04561812 -0.04170130 -0.26450415

 TRANS. SAYVETZ    X  0.00019128  0.00005747 -0.00000941 -0.00004058 -0.00008542
                   Y -0.00029901 -0.00000868 -0.00006315 -0.00003270  0.00008006
                   Z  0.00009042 -0.00002558  0.00003632  0.00001157 -0.00004283
               TOTAL  0.00036630  0.00006350  0.00007346  0.00005339  0.00012467

   ROT. SAYVETZ    X -0.00098461  0.00030853 -0.00109998  0.00028459  0.00016039
                   Y  0.00076720  0.00046684 -0.00061816  0.00051110  0.00032538
                   Z -0.00133295  0.00010187  0.00075648 -0.00035400  0.00038435
               TOTAL  0.00182615  0.00056878  0.00147117  0.00068376  0.00052851

                         16          17          18          19          20
       FREQUENCY:      1303.20     1419.34     1464.22     1681.69     1754.06  
        SYMMETRY:         A           A           A           A           A   
    REDUCED MASS:      1.36738     1.17418     1.23938     4.33250    10.73776
    IR INTENSITY:      0.01043     0.18376     0.27689     0.07721     2.57684

  1   C            X -0.07021662  0.00040366 -0.01208007  0.01821823 -0.00332707
                   Y -0.05252024  0.00508445 -0.01068064 -0.15306620  0.01985514
                   Z -0.06957412  0.00459354 -0.01405330 -0.09164051  0.01067420
  2   C            X  0.09295404  0.00859866  0.04688096 -0.04488288  0.01832606
                   Y  0.00976571 -0.01802048 -0.09687947  0.15998369 -0.04048057
                   Z  0.04712600 -0.03407713 -0.03771921  0.08487340 -0.00671937
  3   C            X -0.00238248  0.06936396 -0.03278352  0.00725132 -0.04533432
                   Y  0.01157556 -0.01844317  0.01008464  0.00857589  0.17696483
                   Z  0.01675310 -0.01597441  0.02879872 -0.03675647 -0.12771208
  4   O            X -0.00217417 -0.02798812  0.00467554  0.00448128  0.01611418
                   Y  0.00085334 -0.03543297  0.02146805 -0.02235099 -0.11519183
                   Z -0.00242453  0.04764626 -0.02524603  0.02190011  0.09290606
  5   H            X  0.01709618  0.05376645  0.25284590  0.18508108  0.00090125
                   Y  0.05973440  0.09827704  0.41786673  0.06376648  0.02785845
                   Z  0.05775000  0.11648095  0.40801273  0.13179848 -0.01109276
  6   H            X  0.12555093 -0.07757890 -0.29929015 -0.21672101  0.00917651
                   Y -0.35045229  0.14639741  0.44801192  0.17111359 -0.01097584
                   Z -0.17660655  0.04403655  0.14896625  0.00932445  0.01357350
  7   H            X -0.28939733 -0.03879710 -0.10375765  0.13501516 -0.01308526
                   Y  0.61150249  0.01353818  0.13615334 -0.08398554  0.02079141
                   Z  0.25802110  0.00150652  0.03943631  0.01062247  0.00397153
  8   H            X -0.06113836 -0.42633082  0.05197241  0.05666562  0.10843265
                   Y  0.03692898  0.67771116 -0.18205575  0.01935435 -0.07090322
                   Z -0.03285490 -0.37694759  0.07787009  0.01890968 -0.00740566

 TRANS. SAYVETZ    X -0.00003172 -0.00003836 -0.00000476  0.00001104 -0.00002902
                   Y  0.00001416 -0.00005014  0.00006652 -0.00000036  0.00010056
                   Z  0.00002126 -0.00000376  0.00006813 -0.00000211 -0.00002375
               TOTAL  0.00004073  0.00006324  0.00009534  0.00001124  0.00010733

   ROT. SAYVETZ    X -0.00050034 -0.00044873 -0.00009355 -0.00002367  0.00022433
                   Y -0.00004590 -0.00034650 -0.00031150  0.00005414  0.00010587
                   Z -0.00009969 -0.00023859  0.00010057 -0.00025149  0.00009577
               TOTAL  0.00051224  0.00061510  0.00034043  0.00025834  0.00026590

                         21          22          23          24
       FREQUENCY:      2961.26     3184.42     3202.90     3284.94  
        SYMMETRY:         A           A           A           A   
    REDUCED MASS:      1.08349     1.05749     1.09224     1.11757
    IR INTENSITY:      2.31615     0.07424     0.00544     0.08218

  1   C            X -0.00042848 -0.00033473  0.00930064 -0.08650493
                   Y  0.00060268 -0.05075747  0.01986678  0.02047266
                   Z  0.00016115 -0.03381200  0.01786045 -0.03053940
  2   C            X  0.00038709 -0.02020143 -0.05695486 -0.00728942
                   Y -0.00200710 -0.00206576 -0.02720767 -0.00321790
                   Z -0.00039000 -0.01184018 -0.04734264 -0.00590684
  3   C            X -0.06023001 -0.00017125  0.00200612  0.00042885
                   Y -0.01331613  0.00000803 -0.00111374 -0.00028083
                   Z  0.05041190 -0.00029473 -0.00047416 -0.00016578
  4   O            X  0.00037476  0.00008539 -0.00015870  0.00002933
                   Y -0.00085928 -0.00030795  0.00004367 -0.00008951
                   Z  0.00056516  0.00021591 -0.00013541  0.00006343
  5   H            X  0.00326336 -0.51007226  0.10272937  0.58431699
                   Y -0.00075740  0.34838055 -0.06899396 -0.41535972
                   Z  0.00318954 -0.02934448  0.00648676  0.02231382
  6   H            X -0.00481280  0.51745195 -0.22571424  0.44926172
                   Y -0.00130060  0.19676896 -0.08851361  0.18543293
                   Z -0.00307393  0.39553072 -0.17391272  0.35299107
  7   H            X  0.00448807  0.23586122  0.68132726  0.07794803
                   Y  0.00765678  0.08925007  0.25934872  0.03039719
                   Z  0.01016124  0.18009235  0.52200836  0.05993063
  8   H            X  0.70877699  0.00196338 -0.01228909 -0.00030159
                   Y  0.18328367 -0.00060517 -0.00186732 -0.00115501
                   Z -0.61676431 -0.00258846  0.00425948 -0.00030797

 TRANS. SAYVETZ    X  0.00002217 -0.00000014  0.00001059  0.00000365
                   Y -0.00003029  0.00004584 -0.00000102  0.00000053
                   Z  0.00000303  0.00003502  0.00000771  0.00000115
               TOTAL  0.00003766  0.00005769  0.00001314  0.00000386

   ROT. SAYVETZ    X -0.00004774 -0.00006950 -0.00000991  0.00001004
                   Y  0.00003291 -0.00006265  0.00000894  0.00003929
                   Z -0.00002211 -0.00001781 -0.00004790 -0.00004610
               TOTAL  0.00006206  0.00009525  0.00004972  0.00006140

 REFERENCE ON SAYVETZ CONDITIONS - A. SAYVETZ, J.CHEM.PHYS., 7, 383-389(1939).

 NOTE - THE MODES J,K ARE ORTHONORMALIZED ACCORDING TO
 SUM ON I   M(I) * (X(I,J)*X(I,K) + Y(I,J)*Y(I,K) + Z(I,J)*Z(I,K)) = DELTA(J,K)

  MODE FREQ(CM**-1)  SYMMETRY  RED. MASS  IR INTENS.
     1     216.275    A        1.873406    0.143734
     2       6.963    A        3.333178    0.080593
     3       1.767    A        4.905011    0.012640
     4       0.812    A        8.036014    0.001714
     5       2.478    A        8.048124    0.034194
     6       4.906    A        4.729359    0.052081
     7       7.518    A        2.988790    0.033531
     8     306.654    A        2.602731    0.034297
     9     392.816    A        1.847246    0.169208
    10     716.096    A        3.061238    0.301488
    11     917.664    A        1.290673    0.011064
    12     956.726    A        2.080109    1.070950
    13     966.561    A        1.579379    0.571598
    14    1010.368    A        1.084252    0.556002
    15    1143.319    A        1.798339    0.065770
    16    1303.198    A        1.367381    0.010431
    17    1419.345    A        1.174177    0.183764
    18    1464.221    A        1.239379    0.276889
    19    1681.689    A        4.332497    0.077212
    20    1754.062    A       10.737759    2.576835
    21    2961.260    A        1.083487    2.316155
    22    3184.423    A        1.057490    0.074243
    23    3202.903    A        1.092242    0.005438
    24    3284.944    A        1.117570    0.082180

     -------------------------------
     THERMOCHEMISTRY AT T=  298.15 K
     -------------------------------

 USING IDEAL GAS, RIGID ROTOR, HARMONIC NORMAL MODE APPROXIMATIONS.
 P=  1.01325E+05 PASCAL.
 ALL FREQUENCIES ARE SCALED BY   1.00000
 THE MOMENTS OF INERTIA ARE (IN AMU*BOHR**2)
     60.10194   363.07777   380.17433
 THE ROTATIONAL SYMMETRY NUMBER IS  1.0
 THE ROTATIONAL CONSTANTS ARE (IN GHZ)
     30.00050     4.96612     4.74279
   1 IMAGINARY FREQUENCY VIBRATION(S) IS(ARE) EXCLUDED
     FROM THE FOLLOWING THERMOCHEMICAL ANALYSIS.
 THE HARMONIC ZERO POINT ENERGY IS (SCALED BY   1.000)
        0.060750 HARTREE/MOLECULE    13333.124539 CM**-1/MOLECULE 
       38.121354 KCAL/MOL              159.499746 KJ/MOL

               Q               LN Q
 ELEC.     1.00000E+00       0.000000
 TRANS.    1.64832E+07      16.617850
 ROT.      3.26044E+04      10.392204
 VIB.      1.64969E+00       0.500588
 TOT.      8.86584E+11      27.510642

              E         H         G         CV        CP        S
           KJ/MOL    KJ/MOL    KJ/MOL   J/MOL-K   J/MOL-K   J/MOL-K
 ELEC.      0.000     0.000     0.000     0.000     0.000     0.000
 TRANS.     3.718     6.197   -41.195    12.472    20.786   158.954
 ROT.       3.718     3.718   -25.762    12.472    12.472    98.877
 VIB.     162.269   162.269   158.259    26.254    26.254    13.449
 TOTAL    169.705   172.184    91.302    51.198    59.512   271.279
 VIB. THERMAL CORRECTION E(T)-E(0) = H(T)-H(0) =  2768.776 J/MOL

              E         H         G         CV        CP        S
         KCAL/MOL  KCAL/MOL  KCAL/MOL CAL/MOL-K CAL/MOL-K CAL/MOL-K
 ELEC.      0.000     0.000     0.000     0.000     0.000     0.000
 TRANS.     0.889     1.481    -9.846     2.981     4.968    37.991
 ROT.       0.889     0.889    -6.157     2.981     2.981    23.632
 VIB.      38.783    38.783    37.825     6.275     6.275     3.214
 TOTAL     40.561    41.153    21.822    12.237    14.224    64.837
 VIB. THERMAL CORRECTION E(T)-E(0) = H(T)-H(0) =   661.753 CAL/MOL
 ......END OF NORMAL COORDINATE ANALYSIS......
 CPU     0: STEP CPU TIME=     0.00 TOTAL CPU TIME=    10308.0 (  171.8 MIN)
 TOTAL WALL CLOCK TIME=    10308.0 SECONDS, CPU UTILIZATION IS 100.00%
                  1058376  WORDS OF DYNAMIC MEMORY USED
 EXECUTION OF GAMESS TERMINATED NORMALLY Mon Oct 16 20:10:11 2017
 DDI: 15725752 bytes (15.0 MB / 1 MWords) used by master data server.

 ----------------------------------------
 CPU timing information for all processes
 ========================================
 0: 7364.214406 + 283.781419 = 7647.995825
 1: 7603.551140 + 291.659469 = 7895.210609
 2: 7349.799913 + 272.939349 = 7622.739262
 3: 7679.726428 + 291.940271 = 7971.666699
 4: 2154.420610 + 124.254796 = 2278.675406
 5: 2293.370701 + 115.284739 = 2408.655440
 6: 2008.871677 + 103.210261 = 2112.081938
 7: 2328.658127 + 122.632386 = 2451.290513
 ----------------------------------------
           Disk usage (in bytes)       
 ========================================
 ----------------------------------------
            Local date and time          
 ========================================
16.10.2017 - 20:10:17.91                          
