          ******************************************************
          *         GAMESS VERSION =  1 MAY 2013 (R1)          *
          *             FROM IOWA STATE UNIVERSITY             *
          * M.W.SCHMIDT, K.K.BALDRIDGE, J.A.BOATZ, S.T.ELBERT, *
          *   M.S.GORDON, J.H.JENSEN, S.KOSEKI, N.MATSUNAGA,   *
          *          K.A.NGUYEN, S.J.SU, T.L.WINDUS,           *
          *       TOGETHER WITH M.DUPUIS, J.A.MONTGOMERY       *
          *         J.COMPUT.CHEM.  14, 1347-1363(1993)        *
          *************** 64 BIT WINDOWS VERSION ***************

  SINCE 1993, STUDENTS AND POSTDOCS WORKING AT IOWA STATE UNIVERSITY
  AND ALSO IN THEIR VARIOUS JOBS AFTER LEAVING ISU HAVE MADE IMPORTANT
  CONTRIBUTIONS TO THE CODE:
     IVANA ADAMOVIC, CHRISTINE AIKENS, YURI ALEXEEV, POOJA ARORA,
     ANDREY ASADCHEV, ROB BELL, PRADIPTA BANDYOPADHYAY, JONATHAN BENTZ,
     BRETT BODE, GALINA CHABAN, WEI CHEN, CHEOL HO CHOI, PAUL DAY,
     ALBERT DEFUSCO, TIM DUDLEY, DMITRI FEDOROV, GRAHAM FLETCHER,
     MARK FREITAG, KURT GLAESEMANN, DAN KEMP, GRANT MERRILL,
     NORIYUKI MINEZAWA, JONATHAN MULLIN, TAKESHI NAGATA,
     SEAN NEDD, HEATHER NETZLOFF, BOSILJKA NJEGIC, RYAN OLSON, MIKE PAK,
     JIM SHOEMAKER, LYUDMILA SLIPCHENKO, SAROM SOK, JIE SONG,
     TETSUYA TAKETSUGU, SIMON WEBB, SOOHAENG YOO, FEDERICO ZAHARIEV

  ADDITIONAL CODE HAS BEEN PROVIDED BY COLLABORATORS IN OTHER GROUPS:
     IOWA STATE UNIVERSITY:
          JOE IVANIC, LAIMUTIS BYTAUTAS, KLAUS RUEDENBERG
     UNIVERSITY OF TOKYO: KIMIHIKO HIRAO, TAKAHITO NAKAJIMA,
          TAKAO TSUNEDA, MUNEAKI KAMIYA, SUSUMU YANAGISAWA,
          KIYOSHI YAGI, MAHITO CHIBA, SEIKEN TOKURA, NAOAKI KAWAKAMI
     UNIVERSITY OF AARHUS: FRANK JENSEN
     UNIVERSITY OF IOWA: VISVALDAS KAIRYS, HUI LI
     NATIONAL INST. OF STANDARDS AND TECHNOLOGY: WALT STEVENS, DAVID GARMER
     UNIVERSITY OF PISA: BENEDETTA MENNUCCI, JACOPO TOMASI
     UNIVERSITY OF MEMPHIS: HENRY KURTZ, PRAKASHAN KORAMBATH
     UNIVERSITY OF ALBERTA: TOBY ZENG, MARIUSZ KLOBUKOWSKI
     UNIVERSITY OF NEW ENGLAND: MARK SPACKMAN
     MIE UNIVERSITY: HIROAKI UMEDA
     MICHIGAN STATE UNIVERSITY:
          KAROL KOWALSKI, MARTA WLOCH, JEFFREY GOUR, JESSE LUTZ,
          WEI LI, PIOTR PIECUCH
     UNIVERSITY OF SILESIA: MONIKA MUSIAL, STANISLAW KUCHARSKI
     FACULTES UNIVERSITAIRES NOTRE-DAME DE LA PAIX:
          OLIVIER QUINET, BENOIT CHAMPAGNE
     UNIVERSITY OF CALIFORNIA - SANTA BARBARA: BERNARD KIRTMAN
     INSTITUTE FOR MOLECULAR SCIENCE:
          KAZUYA ISHIMURA, MICHIO KATOUDA, AND SHIGERU NAGASE
     UNIVERSITY OF NOTRE DAME: DAN CHIPMAN
     KYUSHU UNIVERSITY:
          HARUYUKI NAKANO,
          FENG LONG GU, JACEK KORCHOWIEC, MARCIN MAKOWSKI, AND YURIKO AOKI,
          HIROTOSHI MORI AND EISAKU MIYOSHI
     PENNSYLVANIA STATE UNIVERSITY:
          TZVETELIN IORDANOV, CHET SWALINA, JONATHAN SKONE,
          SHARON HAMMES-SCHIFFER
     WASEDA UNIVERSITY:
          MASATO KOBAYASHI, TOMOKO AKAMA, TSUGUKI TOUMA,
          TAKESHI YOSHIKAWA, YASUHIRO IKABATA, HIROMI NAKAI
     NANJING UNIVERSITY: SHUHUA LI
     UNIVERSITY OF NEBRASKA:
          PEIFENG SU, DEJUN SI, NANDUN THELLAMUREGE, YALI WANG, HUI LI
     UNIVERSITY OF ZURICH:
          ROBERTO PEVERATI, KIM BALDRIDGE
     N. COPERNICUS UNIVERSITY AND JACKSON STATE UNIVERSITY:
          MARIA BARYSZ


 PARALLEL VERSION RUNNING ON     4 PROCESSORS IN     4 NODES.

 EXECUTION OF GAMESS BEGUN Fri Sep 08 14:29:53 2017

            ECHO OF THE FIRST FEW INPUT CARDS -
 INPUT CARD> $CONTRL  RUNTYP=optimize cctyp=ccsd(t)                                         
 INPUT CARD> ispher=+1                                                                      
 INPUT CARD> numgrd=.t.                                                                     
 INPUT CARD>! exetyp=check                                                                  
 INPUT CARD> $END                                                                           
 INPUT CARD> $system TIMLIM=9000                                                            
 INPUT CARD> mwords=80 memddi=20 $end                                                       
 INPUT CARD>! $BASIS  GBASIS=N31 NGAUSS=6 ndfunc=1 $END                                     
 INPUT CARD> $BASIS  GBASIS=cct $END                                                        
 INPUT CARD> $force method=fullnum $end                                                     
 INPUT CARD> $scf dirscf=.t. $end                                                           
 INPUT CARD>                                                                                
 INPUT CARD> $DATA                                                                          
 INPUT CARD> C2H4                                                                           
 INPUT CARD> dnh 2                                                                          
 INPUT CARD>                                                                                
 INPUT CARD> CARBON      6.0   0.0000000000   0.0000000000   0.7                            
 INPUT CARD> HYDROGEN    1.0   0.0000000000   0.6            1.2                            
 INPUT CARD> $END                                                                           
 INPUT CARD>                                                                                
   80000000 WORDS OF MEMORY AVAILABLE

     BASIS OPTIONS
     -------------
     GBASIS=CCT          IGAUSS=       0      POLAR=NONE    
     NDFUNC=       0     NFFUNC=       0     DIFFSP=       F
     NPFUNC=       0      DIFFS=       F     BASNAM=        


     RUN TITLE
     ---------
  C2H4                                                                           

 THE POINT GROUP OF THE MOLECULE IS DNH     
 THE ORDER OF THE PRINCIPAL AXIS IS     2

 ATOM      ATOMIC                      COORDINATES (BOHR)
           CHARGE         X                   Y                   Z
 CARBON      6.0     0.0000000000        0.0000000000       -1.3228081914
 CARBON      6.0     0.0000000000        0.0000000000        1.3228081914
 HYDROGEN    1.0     0.0000000000       -1.1338355926        2.2676711853
 HYDROGEN    1.0     0.0000000000        1.1338355926       -2.2676711853
 HYDROGEN    1.0     0.0000000000       -1.1338355926       -2.2676711853
 HYDROGEN    1.0     0.0000000000        1.1338355926        2.2676711853

          INTERNUCLEAR DISTANCES (ANGS.)
          ------------------------------

                1 CARB       2 CARB       3 HYDR       4 HYDR       5 HYDR  

   1 CARB    0.0000000    1.4000000 *  1.9924859 *  0.7810250 *  0.7810250 *
   2 CARB    1.4000000 *  0.0000000    0.7810250 *  1.9924859 *  1.9924859 *
   3 HYDR    1.9924859 *  0.7810250 *  0.0000000    2.6832816 *  2.4000000 *
   4 HYDR    0.7810250 *  1.9924859 *  2.6832816 *  0.0000000    1.2000000 *
   5 HYDR    0.7810250 *  1.9924859 *  2.4000000 *  1.2000000 *  0.0000000  
   6 HYDR    1.9924859 *  0.7810250 *  1.2000000 *  2.4000000 *  2.6832816 *

                6 HYDR  

   1 CARB    1.9924859 *
   2 CARB    0.7810250 *
   3 HYDR    1.2000000 *
   4 HYDR    2.4000000 *
   5 HYDR    2.6832816 *
   6 HYDR    0.0000000  

  * ... LESS THAN  3.000


     ATOMIC BASIS SET
     ----------------
 THE CONTRACTED PRIMITIVE FUNCTIONS HAVE BEEN UNNORMALIZED
 THE CONTRACTED BASIS FUNCTIONS ARE NOW NORMALIZED TO UNITY

  SHELL TYPE  PRIMITIVE        EXPONENT          CONTRACTION COEFFICIENT(S)

 CARBON    

     11   S       1          8236.0000000    0.000542430189
     11   S       2          1235.0000000    0.004196427901
     11   S       3           280.8000000    0.021540914108
     11   S       4            79.2700000    0.083614949614
     11   S       5            25.5900000    0.239871618922
     11   S       6             8.9970000    0.443751820060
     11   S       7             3.3190000    0.353579696469
     11   S       8             0.3643000   -0.009176366076

     12   S       9          8236.0000000   -0.000196392234
     12   S      10          1235.0000000   -0.001525950274
     12   S      11           280.8000000   -0.007890449028
     12   S      12            79.2700000   -0.031514870532
     12   S      13            25.5900000   -0.096910008320
     12   S      14             8.9970000   -0.220541526288
     12   S      15             3.3190000   -0.296069112937
     12   S      16             0.3643000    1.040503432950

     13   S      17             0.9059000    1.000000000000

     14   S      18             0.1285000    1.000000000000

     15   P      19            18.7100000    0.039426387165
     15   P      20             4.1330000    0.244088984924
     15   P      21             1.2000000    0.815492008943

     16   P      22             0.3827000    1.000000000000

     17   P      23             0.1209000    1.000000000000

     18   D      24             1.0970000    1.000000000000

     19   D      25             0.3180000    1.000000000000

     20   F      26             0.7610000    1.000000000000

 HYDROGEN  

     39   S      27            33.8700000    0.025494863235
     39   S      28             5.0950000    0.190362765893
     39   S      29             1.1590000    0.852162022245

     40   S      30             0.3258000    1.000000000000

     41   S      31             0.1027000    1.000000000000

     42   P      32             1.4070000    1.000000000000

     43   P      33             0.3880000    1.000000000000

     44   D      34             1.0570000    1.000000000000

 TOTAL NUMBER OF BASIS SET SHELLS             =   44
 NUMBER OF CARTESIAN GAUSSIAN BASIS FUNCTIONS =  130
 NOTE: THIS RUN WILL RESTRICT THE MO VARIATION SPACE TO SPHERICAL HARMONICS.
 THE NUMBER OF ORBITALS KEPT IN THE VARIATIONAL SPACE WILL BE PRINTED LATER.
 NUMBER OF ELECTRONS                          =   16
 CHARGE OF MOLECULE                           =    0
 SPIN MULTIPLICITY                            =    1
 NUMBER OF OCCUPIED ORBITALS (ALPHA)          =    8
 NUMBER OF OCCUPIED ORBITALS (BETA )          =    8
 TOTAL NUMBER OF ATOMS                        =    6
 THE NUCLEAR REPULSION ENERGY IS       37.9598672370

     $NEO OPTIONS
     ------------
     NUNIQN=       0     BASNUC=DZSNB        NEOSCF=NONE    
     NEOCI =NONE         NUMULT=       2     NUCST =       1
     NAUXNB=       0     VNUCEX=       F     NUCOPT=       F
     NTAUXB=       0     NEOHSS=       F     HSSINI=READH   
     HSSUPD=POWELLUP     DIRNUC=       F     SYMNUC=       F
     QMTOLN= 0.0E+00     USRDEX=       F
     POSNEO=       F     POSPRP=       F
     NEONCI=       F     LOCORB=       0

     $CONTRL OPTIONS
     ---------------
 SCFTYP=RHF          RUNTYP=OPTIMIZE     EXETYP=RUN     
 MPLEVL=       0     CITYP =NONE         CCTYP =CCSD(T)      VBTYP =NONE    
 DFTTYP=NONE         TDDFT =NONE    
 MULT  =       1     ICHARG=       0     NZVAR =       0     COORD =UNIQUE  
 PP    =NONE         RELWFN=NONE         LOCAL =NONE         NUMGRD=       T
 ISPHER=       1     NOSYM =       0     MAXIT =      30     UNITS =ANGS    
 PLTORB=       F     MOLPLT=       F     AIMPAC=       F     FRIEND=        
 NPRINT=       7     IREST =       0     GEOM  =INPUT   
 NORMF =       0     NORMP =       0     ITOL  =      20     ICUT  =       9
 INTTYP=BEST         GRDTYP=BEST         QMTTOL= 1.0E-06

     $SYSTEM OPTIONS
     ---------------
  REPLICATED MEMORY=    80000000 WORDS (ON EVERY NODE).
 DISTRIBUTED MEMDDI=          20 MILLION WORDS IN AGGREGATE,
 MEMDDI DISTRIBUTED OVER   4 PROCESSORS IS     5000000 WORDS/PROCESSOR.
 TOTAL MEMORY REQUESTED ON EACH PROCESSOR=    85000000 WORDS.
 TIMLIM=        9000.00 MINUTES, OR       6.3 DAYS.
 PARALL= T  BALTYP=  DLB     KDIAG=    0  COREFL= F
 MXSEQ2=     300 MXSEQ3=     150

          ----------------
          PROPERTIES INPUT
          ----------------

     MOMENTS            FIELD           POTENTIAL          DENSITY
 IEMOM =       1   IEFLD =       0   IEPOT =       0   IEDEN =       0
 WHERE =COMASS     WHERE =NUCLEI     WHERE =NUCLEI     WHERE =NUCLEI  
 OUTPUT=BOTH       OUTPUT=BOTH       OUTPUT=BOTH       OUTPUT=BOTH    
 IEMINT=       0   IEFINT=       0                     IEDINT=       0
                                                       MORB  =       0
          EXTRAPOLATION IN EFFECT
          SOSCF IN EFFECT
 ORBITAL PRINTING OPTION: NPREO=     1   130     2     1

     -------------------------------
     INTEGRAL TRANSFORMATION OPTIONS
     -------------------------------
     NWORD  =            0
     CUTOFF = 1.0E-09     MPTRAN =       0
     DIRTRF =       T     AOINTS =DUP     

          ----------------------
          INTEGRAL INPUT OPTIONS
          ----------------------
 NOPK  =       1 NORDER=       0 SCHWRZ=       T

     ------------------------------------------
     THE POINT GROUP IS DNH, NAXIS= 2, ORDER= 8
     ------------------------------------------

 -- VARIATIONAL SPACE WILL BE RESTRICTED TO PURE SPHERICAL HARMONICS ONLY --
 AFTER EXCLUDING CONTAMINANT COMBINATIONS FROM THE CARTESIAN GAUSSIAN BASIS
 SET, THE NUMBER OF SPHERICAL HARMONICS KEPT IN THE VARIATION SPACE IS  116

     DIMENSIONS OF THE SYMMETRY SUBSPACES ARE
 AG  =   23     AU  =    7     B3U =   11     B3G =   17     B1G =    7
 B1U =   23     B2U =   17     B2G =   11

 ..... DONE SETTING UP THE RUN .....
 CPU     0: STEP CPU TIME=     0.01 TOTAL CPU TIME=        0.0 (    0.0 MIN)
 TOTAL WALL CLOCK TIME=        0.0 SECONDS, CPU UTILIZATION IS 100.01%


          -----------------------------
          STATIONARY POINT LOCATION RUN
          -----------------------------

 OBTAINING INITIAL HESSIAN, HESS=GUESS   
 CARTESIAN COORDINATE OPTIMIZATION USING BADGER'S RULE FORCE CONSTANT GUESS

          PARAMETERS CONTROLLING GEOMETRY SEARCH ARE
          METHOD =QA                  UPHESS =BFGS    
          NNEG   =         0          NFRZ   =         0
          NSTEP  =        50          IFOLOW =         1
          HESS   =GUESS               RESTAR =         F
          IHREP  =         0          HSSEND =         F
          NPRT   =         0          NPUN   =         0
          OPTTOL = 1.000E-04          RMIN   = 1.500E-03
          RMAX   = 1.000E-01          RLIM   = 7.000E-02
          DXMAX  = 3.000E-01          PURIFY =         F
          MOVIE  =         F          TRUPD  =         T
          TRMAX  = 5.000E-01          TRMIN  = 5.000E-02
          ITBMAT =         5          STPT   =         F
          STSTEP = 1.000E-02          PROJCT=          T

 BEGINNING GEOMETRY SEARCH POINT NSERCH=   0 ...

 COORDINATES OF SYMMETRY UNIQUE ATOMS (ANGS)
   ATOM   CHARGE       X              Y              Z
 ------------------------------------------------------------
 CARBON      6.0   0.0000000000   0.0000000000   0.7000000000
 HYDROGEN    1.0   0.0000000000   0.6000000000   1.2000000000
 COORDINATES OF ALL ATOMS ARE (ANGS)
   ATOM   CHARGE       X              Y              Z
 ------------------------------------------------------------
 CARBON      6.0   0.0000000000   0.0000000000  -0.7000000000
 CARBON      6.0   0.0000000000   0.0000000000   0.7000000000
 HYDROGEN    1.0   0.0000000000  -0.6000000000   1.2000000000
 HYDROGEN    1.0   0.0000000000   0.6000000000  -1.2000000000
 HYDROGEN    1.0   0.0000000000  -0.6000000000  -1.2000000000
 HYDROGEN    1.0   0.0000000000   0.6000000000   1.2000000000

          ********************
          1 ELECTRON INTEGRALS
          ********************
 ...... END OF ONE-ELECTRON INTEGRALS ......
 CPU     0: STEP CPU TIME=     0.00 TOTAL CPU TIME=        0.0 (    0.0 MIN)
 TOTAL WALL CLOCK TIME=        0.0 SECONDS, CPU UTILIZATION IS 100.01%

          -------------
          GUESS OPTIONS
          -------------
          GUESS =HUCKEL            NORB  =       0          NORDER=       0
          MIX   =       F          PRTMO =       F          PUNMO =       F
          TOLZ  = 1.0E-08          TOLE  = 1.0E-05
          SYMDEN=       F          PURIFY=       F

 INITIAL GUESS ORBITALS GENERATED BY HUCKEL   ROUTINE.
 HUCKEL GUESS REQUIRES    126392 WORDS.

 STATISTICS FOR GENERATION OF SYMMETRY ORBITAL -Q- MATRIX
 NUMBER OF CARTESIAN ATOMIC ORBITALS=        130
 NUMBER OF SPHERICAL CONTAMINANTS DROPPED=    14
 NUMBER OF LINEARLY DEPENDENT MOS DROPPED=     0
 TOTAL NUMBER OF MOS IN VARIATION SPACE=     116

 SYMMETRIES FOR INITIAL GUESS ORBITALS FOLLOW.   BOTH SET(S).
     8 ORBITALS ARE OCCUPIED (    2 CORE ORBITALS).
     3=AG       4=B1U      5=B2U      6=AG       7=B3U      8=B3G      9=B2G 
    10=B1U     11=B2U     12=B3G     13=B1U     14=AG      15=AG      16=AG  
    17=AG      18=AG  
 ...... END OF INITIAL ORBITAL SELECTION ......
 CPU     0: STEP CPU TIME=     0.01 TOTAL CPU TIME=        0.0 (    0.0 MIN)
 TOTAL WALL CLOCK TIME=        0.0 SECONDS, CPU UTILIZATION IS 100.00%

                    ----------------------
                    AO INTEGRAL TECHNOLOGY
                    ----------------------
     S,P,L SHELL ROTATED AXIS INTEGRALS, REPROGRAMMED BY
        KAZUYA ISHIMURA (IMS) AND JOSE SIERRA (SYNSTAR).
     S,P,D,L SHELL ROTATED AXIS INTEGRALS PROGRAMMED BY
        KAZUYA ISHIMURA (INSTITUTE FOR MOLECULAR SCIENCE).
     S,P,D,F,G SHELL TO TOTAL QUARTET ANGULAR MOMENTUM SUM 5,
        ERIC PROGRAM BY GRAHAM FLETCHER (ELORET AND NASA ADVANCED
        SUPERCOMPUTING DIVISION, AMES RESEARCH CENTER).
     S,P,D,F,G,L SHELL GENERAL RYS QUADRATURE PROGRAMMED BY
        MICHEL DUPUIS (PACIFIC NORTHWEST NATIONAL LABORATORY).

          --------------------
          2 ELECTRON INTEGRALS
          --------------------

 DIRECT SCF METHOD SKIPS INTEGRAL STORAGE ON DISK.
 DIRECT TRANSFORMATION SKIPS AO INTEGRAL STORAGE ON DISK.
  ...... END OF TWO-ELECTRON INTEGRALS .....
 CPU     0: STEP CPU TIME=     0.03 TOTAL CPU TIME=        0.1 (    0.0 MIN)
 TOTAL WALL CLOCK TIME=        0.1 SECONDS, CPU UTILIZATION IS 100.00%

          --------------------------
                 RHF SCF CALCULATION
          --------------------------

     NUCLEAR ENERGY =        37.9598672370
     MAXIT =   30     NPUNCH=    2
     EXTRAP=T  DAMP=F  SHIFT=F  RSTRCT=F  DIIS=F  DEM=F  SOSCF=T
     DENSITY MATRIX CONV=  2.00E-06
     SOSCF WILL OPTIMIZE     864 ORBITAL ROTATIONS, SOGTOL=   0.250
     MEMORY REQUIRED FOR RHF ITERS=    179656 WORDS.

 DIRECT SCF CALCULATION, SCHWRZ=T   FDIFF=T,  DIRTHR=  0.00E+00 NITDIR=10
 SCHWARZ INEQUALITY OVERHEAD:      8515 INTEGRALS, T=        0.00

                                                                                   NONZERO     BLOCKS
 ITER EX DEM     TOTAL ENERGY        E CHANGE  DENSITY CHANGE     ORB. GRAD      INTEGRALS    SKIPPED
   1  0  0      -77.2518029468   -77.2518029468   0.888273640   0.000000000        4674351        198
          ---------------START SECOND ORDER SCF---------------
   2  1  0      -77.5702610707    -0.3184581239   0.036249849   0.056236611        4674604        210
   3  2  0      -77.5850202655    -0.0147591948   0.015243616   0.011527108        4669614        447
   4  3  0      -77.5869260648    -0.0019057993   0.002538306   0.002017221        4662236        635
   5  4  0      -77.5869751560    -0.0000490912   0.000857964   0.000346194        4643547       1177
   6  5  0      -77.5869783074    -0.0000031514   0.000199532   0.000099958        4620451       1872
   7  6  0      -77.5869784010    -0.0000000936   0.000057673   0.000021329        4557858       3364
   8  7  0      -77.5869784052    -0.0000000042   0.000009225   0.000003420        4509494       4646
   9  8  0      -77.5869784052     0.0000000000   0.000000771   0.000000618        4362300       8347
  10  9  0      -77.5869784052     0.0000000001   0.000000190   0.000000093        4207798      12025

 RHF HAS CONVERGED, NOW COMPUTING EXACT TOTAL FOCK MATRIX
 FOR USE DURING THE COUPLED CLUSTER CALCULATION THAT FOLLOWS.

          -----------------
          DENSITY CONVERGED
          -----------------
     TIME TO FORM FOCK OPERATORS=       1.5 SECONDS (       0.2 SEC/ITER)
     FOCK TIME ON FIRST ITERATION=       0.1, LAST ITERATION=       0.1
     TIME TO SOLVE SCF EQUATIONS=       0.0 SECONDS (       0.0 SEC/ITER)

 FINAL RHF ENERGY IS      -77.5869784052 AFTER  10 ITERATIONS

          ------------
          EIGENVECTORS
          ------------

                      1          2          3          4          5
                  -11.1761   -11.1749    -1.0880    -0.9785    -0.7003
                     AG         B1U        AG         B1U        B2U 
    1  C  1  S    0.689893   0.690251  -0.017111  -0.014753   0.000000
    2  C  1  S   -0.000868  -0.000688   0.359564   0.301633   0.000000
    3  C  1  S    0.029874   0.029198   0.075516   0.061097   0.000000
    4  C  1  S    0.002504   0.005681   0.139771   0.172479   0.000000
    5  C  1  X    0.000000   0.000000   0.000000   0.000000   0.000000
    6  C  1  Y    0.000000   0.000000   0.000000   0.000000   0.207407
    7  C  1  Z   -0.000137  -0.000605  -0.016843  -0.109632   0.000000
    8  C  1  X    0.000000   0.000000   0.000000   0.000000   0.000000
    9  C  1  Y    0.000000   0.000000   0.000000   0.000000   0.192542
   10  C  1  Z    0.001684   0.003084  -0.029317  -0.092587   0.000000
   11  C  1  X    0.000000   0.000000   0.000000   0.000000   0.000000
   12  C  1  Y    0.000000   0.000000   0.000000   0.000000   0.058829
   13  C  1  Z   -0.000332   0.001512  -0.008782  -0.006660   0.000000
   14  C  1 XX   -0.000622  -0.000916  -0.009925  -0.008610   0.000000
   15  C  1 YY    0.000389   0.000344   0.001118   0.005639   0.000000
   16  C  1 ZZ    0.000233   0.000572   0.008807   0.002971   0.000000
   17  C  1 XY    0.000000   0.000000   0.000000   0.000000   0.000000
   18  C  1 XZ    0.000000   0.000000   0.000000   0.000000   0.000000
   19  C  1 YZ    0.000000   0.000000   0.000000   0.000000  -0.011351
   20  C  1 XX    0.000328  -0.000309  -0.013241  -0.020108   0.000000
   21  C  1 YY    0.001148  -0.000414  -0.000692   0.004811   0.000000
   22  C  1 ZZ   -0.001476   0.000723   0.013932   0.015297   0.000000
   23  C  1 XY    0.000000   0.000000   0.000000   0.000000   0.000000
   24  C  1 XZ    0.000000   0.000000   0.000000   0.000000   0.000000
   25  C  1 YZ    0.000000   0.000000   0.000000   0.000000   0.001295
   26  C  1 XXX   0.000000   0.000000   0.000000   0.000000   0.000000
   27  C  1 YYY   0.000000   0.000000   0.000000   0.000000  -0.005040
   28  C  1 ZZZ   0.000229   0.001225   0.004051   0.003545   0.000000
   29  C  1 XXY   0.000000   0.000000   0.000000   0.000000  -0.000707
   30  C  1 XXZ   0.000249  -0.000172  -0.001306  -0.002553   0.000000
   31  C  1 YYX   0.000000   0.000000   0.000000   0.000000   0.000000
   32  C  1 YYZ  -0.000556  -0.001471  -0.004129  -0.002203   0.000000
   33  C  1 ZZX   0.000000   0.000000   0.000000   0.000000   0.000000
   34  C  1 ZZY   0.000000   0.000000   0.000000   0.000000   0.007469
   35  C  1 XYZ   0.000000   0.000000   0.000000   0.000000   0.000000
   36  C  2  S    0.689893  -0.690251  -0.017111   0.014753   0.000000
   37  C  2  S   -0.000868   0.000688   0.359564  -0.301633   0.000000
   38  C  2  S    0.029874  -0.029198   0.075516  -0.061097   0.000000
   39  C  2  S    0.002504  -0.005681   0.139771  -0.172479   0.000000
   40  C  2  X    0.000000   0.000000   0.000000   0.000000   0.000000
   41  C  2  Y    0.000000   0.000000   0.000000   0.000000   0.207407
   42  C  2  Z    0.000137  -0.000605   0.016843  -0.109632   0.000000
   43  C  2  X    0.000000   0.000000   0.000000   0.000000   0.000000
   44  C  2  Y    0.000000   0.000000   0.000000   0.000000   0.192542
   45  C  2  Z   -0.001684   0.003084   0.029317  -0.092587   0.000000
   46  C  2  X    0.000000   0.000000   0.000000   0.000000   0.000000
   47  C  2  Y    0.000000   0.000000   0.000000   0.000000   0.058829
   48  C  2  Z    0.000332   0.001512   0.008782  -0.006660   0.000000
   49  C  2 XX   -0.000622   0.000916  -0.009925   0.008610   0.000000
   50  C  2 YY    0.000389  -0.000344   0.001118  -0.005639   0.000000
   51  C  2 ZZ    0.000233  -0.000572   0.008807  -0.002971   0.000000
   52  C  2 XY    0.000000   0.000000   0.000000   0.000000   0.000000
   53  C  2 XZ    0.000000   0.000000   0.000000   0.000000   0.000000
   54  C  2 YZ    0.000000   0.000000   0.000000   0.000000   0.011351
   55  C  2 XX    0.000328   0.000309  -0.013241   0.020108   0.000000
   56  C  2 YY    0.001148   0.000414  -0.000692  -0.004811   0.000000
   57  C  2 ZZ   -0.001476  -0.000723   0.013932  -0.015297   0.000000
   58  C  2 XY    0.000000   0.000000   0.000000   0.000000   0.000000
   59  C  2 XZ    0.000000   0.000000   0.000000   0.000000   0.000000
   60  C  2 YZ    0.000000   0.000000   0.000000   0.000000  -0.001295
   61  C  2 XXX   0.000000   0.000000   0.000000   0.000000   0.000000
   62  C  2 YYY   0.000000   0.000000   0.000000   0.000000  -0.005040
   63  C  2 ZZZ  -0.000229   0.001225  -0.004051   0.003545   0.000000
   64  C  2 XXY   0.000000   0.000000   0.000000   0.000000  -0.000707
   65  C  2 XXZ  -0.000249  -0.000172   0.001306  -0.002553   0.000000
   66  C  2 YYX   0.000000   0.000000   0.000000   0.000000   0.000000
   67  C  2 YYZ   0.000556  -0.001471   0.004129  -0.002203   0.000000
   68  C  2 ZZX   0.000000   0.000000   0.000000   0.000000   0.000000
   69  C  2 ZZY   0.000000   0.000000   0.000000   0.000000   0.007469
   70  C  2 XYZ   0.000000   0.000000   0.000000   0.000000   0.000000
   71  H  3  S    0.000445  -0.000121   0.095185  -0.121937  -0.119544
   72  H  3  S    0.001374  -0.002007   0.027538  -0.067047  -0.156583
   73  H  3  S   -0.000796   0.000437  -0.007036   0.000100  -0.035407
   74  H  3  X    0.000000   0.000000   0.000000   0.000000   0.000000
   75  H  3  Y    0.000401  -0.000469   0.009649  -0.013638  -0.003595
   76  H  3  Z   -0.000260   0.000076  -0.006833   0.006206   0.012242
   77  H  3  X    0.000000   0.000000   0.000000   0.000000   0.000000
   78  H  3  Y    0.000918  -0.000636  -0.012356   0.004594  -0.002544
   79  H  3  Z    0.000480   0.000350   0.008494  -0.007132   0.011411
   80  H  3 XX   -0.000247   0.000384  -0.001361   0.001243   0.000680
   81  H  3 YY    0.000248  -0.000284   0.000828  -0.002388   0.002180
   82  H  3 ZZ   -0.000001  -0.000100   0.000532   0.001145  -0.002860
   83  H  3 XY    0.000000   0.000000   0.000000   0.000000   0.000000
   84  H  3 XZ    0.000000   0.000000   0.000000   0.000000   0.000000
   85  H  3 YZ   -0.000405   0.000288  -0.000365   0.000633   0.001609
   86  H  4  S    0.000445   0.000121   0.095185   0.121937   0.119544
   87  H  4  S    0.001374   0.002007   0.027538   0.067047   0.156583
   88  H  4  S   -0.000796  -0.000437  -0.007036  -0.000100   0.035407
   89  H  4  X    0.000000   0.000000   0.000000   0.000000   0.000000
   90  H  4  Y   -0.000401  -0.000469  -0.009649  -0.013638  -0.003595
   91  H  4  Z    0.000260   0.000076   0.006833   0.006206   0.012242
   92  H  4  X    0.000000   0.000000   0.000000   0.000000   0.000000
   93  H  4  Y   -0.000918  -0.000636   0.012356   0.004594  -0.002544
   94  H  4  Z   -0.000480   0.000350  -0.008494  -0.007132   0.011411
   95  H  4 XX   -0.000247  -0.000384  -0.001361  -0.001243  -0.000680
   96  H  4 YY    0.000248   0.000284   0.000828   0.002388  -0.002180
   97  H  4 ZZ   -0.000001   0.000100   0.000532  -0.001145   0.002860
   98  H  4 XY    0.000000   0.000000   0.000000   0.000000   0.000000
   99  H  4 XZ    0.000000   0.000000   0.000000   0.000000   0.000000
  100  H  4 YZ   -0.000405  -0.000288  -0.000365  -0.000633  -0.001609
  101  H  5  S    0.000445   0.000121   0.095185   0.121937  -0.119544
  102  H  5  S    0.001374   0.002007   0.027538   0.067047  -0.156583
  103  H  5  S   -0.000796  -0.000437  -0.007036  -0.000100  -0.035407
  104  H  5  X    0.000000   0.000000   0.000000   0.000000   0.000000
  105  H  5  Y    0.000401   0.000469   0.009649   0.013638  -0.003595
  106  H  5  Z    0.000260   0.000076   0.006833   0.006206  -0.012242
  107  H  5  X    0.000000   0.000000   0.000000   0.000000   0.000000
  108  H  5  Y    0.000918   0.000636  -0.012356  -0.004594  -0.002544
  109  H  5  Z   -0.000480   0.000350  -0.008494  -0.007132  -0.011411
  110  H  5 XX   -0.000247  -0.000384  -0.001361  -0.001243   0.000680
  111  H  5 YY    0.000248   0.000284   0.000828   0.002388   0.002180
  112  H  5 ZZ   -0.000001   0.000100   0.000532  -0.001145  -0.002860
  113  H  5 XY    0.000000   0.000000   0.000000   0.000000   0.000000
  114  H  5 XZ    0.000000   0.000000   0.000000   0.000000   0.000000
  115  H  5 YZ    0.000405   0.000288   0.000365   0.000633  -0.001609
  116  H  6  S    0.000445  -0.000121   0.095185  -0.121937   0.119544
  117  H  6  S    0.001374  -0.002007   0.027538  -0.067047   0.156583
  118  H  6  S   -0.000796   0.000437  -0.007036   0.000100   0.035407
  119  H  6  X    0.000000   0.000000   0.000000   0.000000   0.000000
  120  H  6  Y   -0.000401   0.000469  -0.009649   0.013638  -0.003595
  121  H  6  Z   -0.000260   0.000076  -0.006833   0.006206  -0.012242
  122  H  6  X    0.000000   0.000000   0.000000   0.000000   0.000000
  123  H  6  Y   -0.000918   0.000636   0.012356  -0.004594  -0.002544
  124  H  6  Z    0.000480   0.000350   0.008494  -0.007132  -0.011411
  125  H  6 XX   -0.000247   0.000384  -0.001361   0.001243  -0.000680
  126  H  6 YY    0.000248  -0.000284   0.000828  -0.002388  -0.002180
  127  H  6 ZZ   -0.000001  -0.000100   0.000532   0.001145   0.002860
  128  H  6 XY    0.000000   0.000000   0.000000   0.000000   0.000000
  129  H  6 XZ    0.000000   0.000000   0.000000   0.000000   0.000000
  130  H  6 YZ    0.000405  -0.000288   0.000365  -0.000633   0.001609

                      6          7          8          9         10
                   -0.6633    -0.5868    -0.3573     0.1332     0.1543
                     AG         B3G        B3U        B2G        AG  
    1  C  1  S    0.001957   0.000000   0.000000   0.000000   0.024613
    2  C  1  S    0.089223   0.000000   0.000000   0.000000   0.162625
    3  C  1  S    0.008852   0.000000   0.000000   0.000000   0.086771
    4  C  1  S    0.040603   0.000000   0.000000   0.000000   3.262039
    5  C  1  X    0.000000   0.000000   0.197378   0.189591   0.000000
    6  C  1  Y    0.000000   0.212068   0.000000   0.000000   0.000000
    7  C  1  Z    0.237655   0.000000   0.000000   0.000000  -0.033455
    8  C  1  X    0.000000   0.000000   0.268778   0.204512   0.000000
    9  C  1  Y    0.000000   0.211965   0.000000   0.000000   0.000000
   10  C  1  Z    0.265150   0.000000   0.000000   0.000000  -0.305868
   11  C  1  X    0.000000   0.000000   0.232829   0.747529   0.000000
   12  C  1  Y    0.000000   0.109810   0.000000   0.000000   0.000000
   13  C  1  Z    0.092208   0.000000   0.000000   0.000000  -0.887099
   14  C  1 XX   -0.001365   0.000000   0.000000   0.000000   0.005871
   15  C  1 YY   -0.011350   0.000000   0.000000   0.000000  -0.008100
   16  C  1 ZZ    0.012715   0.000000   0.000000   0.000000   0.002229
   17  C  1 XY    0.000000   0.000000   0.000000   0.000000   0.000000
   18  C  1 XZ    0.000000   0.000000   0.009660  -0.013530   0.000000
   19  C  1 YZ    0.000000  -0.025099   0.000000   0.000000   0.000000
   20  C  1 XX    0.001317   0.000000   0.000000   0.000000  -0.122679
   21  C  1 YY   -0.018860   0.000000   0.000000   0.000000  -0.021490
   22  C  1 ZZ    0.017543   0.000000   0.000000   0.000000   0.144169
   23  C  1 XY    0.000000   0.000000   0.000000   0.000000   0.000000
   24  C  1 XZ    0.000000   0.000000   0.023352  -0.017488   0.000000
   25  C  1 YZ    0.000000  -0.014568   0.000000   0.000000   0.000000
   26  C  1 XXX   0.000000   0.000000  -0.004607   0.001620   0.000000
   27  C  1 YYY   0.000000   0.000629   0.000000   0.000000   0.000000
   28  C  1 ZZZ   0.007945   0.000000   0.000000   0.000000   0.002571
   29  C  1 XXY   0.000000  -0.000996   0.000000   0.000000   0.000000
   30  C  1 XXZ  -0.004565   0.000000   0.000000   0.000000  -0.000638
   31  C  1 YYX   0.000000   0.000000  -0.002178  -0.000087   0.000000
   32  C  1 YYZ  -0.006095   0.000000   0.000000   0.000000  -0.002811
   33  C  1 ZZX   0.000000   0.000000   0.008359  -0.002086   0.000000
   34  C  1 ZZY   0.000000   0.000152   0.000000   0.000000   0.000000
   35  C  1 XYZ   0.000000   0.000000   0.000000   0.000000   0.000000
   36  C  2  S    0.001957   0.000000   0.000000   0.000000   0.024613
   37  C  2  S    0.089223   0.000000   0.000000   0.000000   0.162625
   38  C  2  S    0.008852   0.000000   0.000000   0.000000   0.086771
   39  C  2  S    0.040603   0.000000   0.000000   0.000000   3.262039
   40  C  2  X    0.000000   0.000000   0.197378  -0.189591   0.000000
   41  C  2  Y    0.000000  -0.212068   0.000000   0.000000   0.000000
   42  C  2  Z   -0.237655   0.000000   0.000000   0.000000   0.033455
   43  C  2  X    0.000000   0.000000   0.268778  -0.204512   0.000000
   44  C  2  Y    0.000000  -0.211965   0.000000   0.000000   0.000000
   45  C  2  Z   -0.265150   0.000000   0.000000   0.000000   0.305868
   46  C  2  X    0.000000   0.000000   0.232829  -0.747529   0.000000
   47  C  2  Y    0.000000  -0.109810   0.000000   0.000000   0.000000
   48  C  2  Z   -0.092208   0.000000   0.000000   0.000000   0.887099
   49  C  2 XX   -0.001365   0.000000   0.000000   0.000000   0.005871
   50  C  2 YY   -0.011350   0.000000   0.000000   0.000000  -0.008100
   51  C  2 ZZ    0.012715   0.000000   0.000000   0.000000   0.002229
   52  C  2 XY    0.000000   0.000000   0.000000   0.000000   0.000000
   53  C  2 XZ    0.000000   0.000000  -0.009660  -0.013530   0.000000
   54  C  2 YZ    0.000000  -0.025099   0.000000   0.000000   0.000000
   55  C  2 XX    0.001317   0.000000   0.000000   0.000000  -0.122679
   56  C  2 YY   -0.018860   0.000000   0.000000   0.000000  -0.021490
   57  C  2 ZZ    0.017543   0.000000   0.000000   0.000000   0.144169
   58  C  2 XY    0.000000   0.000000   0.000000   0.000000   0.000000
   59  C  2 XZ    0.000000   0.000000  -0.023352  -0.017488   0.000000
   60  C  2 YZ    0.000000  -0.014568   0.000000   0.000000   0.000000
   61  C  2 XXX   0.000000   0.000000  -0.004607  -0.001620   0.000000
   62  C  2 YYY   0.000000  -0.000629   0.000000   0.000000   0.000000
   63  C  2 ZZZ  -0.007945   0.000000   0.000000   0.000000  -0.002571
   64  C  2 XXY   0.000000   0.000996   0.000000   0.000000   0.000000
   65  C  2 XXZ   0.004565   0.000000   0.000000   0.000000   0.000638
   66  C  2 YYX   0.000000   0.000000  -0.002178   0.000087   0.000000
   67  C  2 YYZ   0.006095   0.000000   0.000000   0.000000   0.002811
   68  C  2 ZZX   0.000000   0.000000   0.008359   0.002086   0.000000
   69  C  2 ZZY   0.000000  -0.000152   0.000000   0.000000   0.000000
   70  C  2 XYZ   0.000000   0.000000   0.000000   0.000000   0.000000
   71  H  3  S   -0.080458   0.136795   0.000000   0.000000   0.023818
   72  H  3  S   -0.066559   0.164028   0.000000   0.000000  -0.380806
   73  H  3  S   -0.012381   0.044921   0.000000   0.000000  -1.685872
   74  H  3  X    0.000000   0.000000   0.009255  -0.016089   0.000000
   75  H  3  Y   -0.010027   0.004219   0.000000   0.000000   0.012443
   76  H  3  Z   -0.000390  -0.009864   0.000000   0.000000  -0.004297
   77  H  3  X    0.000000   0.000000   0.013322  -0.016707   0.000000
   78  H  3  Y   -0.003805   0.000077   0.000000   0.000000  -0.155040
   79  H  3  Z   -0.013330  -0.003503   0.000000   0.000000   0.021131
   80  H  3 XX   -0.000684   0.000229   0.000000   0.000000   0.003129
   81  H  3 YY   -0.002359  -0.001336   0.000000   0.000000  -0.005464
   82  H  3 ZZ    0.003043   0.001107   0.000000   0.000000   0.002334
   83  H  3 XY    0.000000   0.000000   0.001257  -0.005471   0.000000
   84  H  3 XZ    0.000000   0.000000  -0.002542   0.002172   0.000000
   85  H  3 YZ   -0.000096  -0.001393   0.000000   0.000000   0.003930
   86  H  4  S   -0.080458   0.136795   0.000000   0.000000   0.023818
   87  H  4  S   -0.066559   0.164028   0.000000   0.000000  -0.380806
   88  H  4  S   -0.012381   0.044921   0.000000   0.000000  -1.685872
   89  H  4  X    0.000000   0.000000   0.009255   0.016089   0.000000
   90  H  4  Y    0.010027  -0.004219   0.000000   0.000000  -0.012443
   91  H  4  Z    0.000390   0.009864   0.000000   0.000000   0.004297
   92  H  4  X    0.000000   0.000000   0.013322   0.016707   0.000000
   93  H  4  Y    0.003805  -0.000077   0.000000   0.000000   0.155040
   94  H  4  Z    0.013330   0.003503   0.000000   0.000000  -0.021131
   95  H  4 XX   -0.000684   0.000229   0.000000   0.000000   0.003129
   96  H  4 YY   -0.002359  -0.001336   0.000000   0.000000  -0.005464
   97  H  4 ZZ    0.003043   0.001107   0.000000   0.000000   0.002334
   98  H  4 XY    0.000000   0.000000  -0.001257  -0.005471   0.000000
   99  H  4 XZ    0.000000   0.000000   0.002542   0.002172   0.000000
  100  H  4 YZ   -0.000096  -0.001393   0.000000   0.000000   0.003930
  101  H  5  S   -0.080458  -0.136795   0.000000   0.000000   0.023818
  102  H  5  S   -0.066559  -0.164028   0.000000   0.000000  -0.380806
  103  H  5  S   -0.012381  -0.044921   0.000000   0.000000  -1.685872
  104  H  5  X    0.000000   0.000000   0.009255   0.016089   0.000000
  105  H  5  Y   -0.010027  -0.004219   0.000000   0.000000   0.012443
  106  H  5  Z    0.000390  -0.009864   0.000000   0.000000   0.004297
  107  H  5  X    0.000000   0.000000   0.013322   0.016707   0.000000
  108  H  5  Y   -0.003805  -0.000077   0.000000   0.000000  -0.155040
  109  H  5  Z    0.013330  -0.003503   0.000000   0.000000  -0.021131
  110  H  5 XX   -0.000684  -0.000229   0.000000   0.000000   0.003129
  111  H  5 YY   -0.002359   0.001336   0.000000   0.000000  -0.005464
  112  H  5 ZZ    0.003043  -0.001107   0.000000   0.000000   0.002334
  113  H  5 XY    0.000000   0.000000   0.001257   0.005471   0.000000
  114  H  5 XZ    0.000000   0.000000   0.002542   0.002172   0.000000
  115  H  5 YZ    0.000096  -0.001393   0.000000   0.000000  -0.003930
  116  H  6  S   -0.080458  -0.136795   0.000000   0.000000   0.023818
  117  H  6  S   -0.066559  -0.164028   0.000000   0.000000  -0.380806
  118  H  6  S   -0.012381  -0.044921   0.000000   0.000000  -1.685872
  119  H  6  X    0.000000   0.000000   0.009255  -0.016089   0.000000
  120  H  6  Y    0.010027   0.004219   0.000000   0.000000  -0.012443
  121  H  6  Z   -0.000390   0.009864   0.000000   0.000000  -0.004297
  122  H  6  X    0.000000   0.000000   0.013322  -0.016707   0.000000
  123  H  6  Y    0.003805   0.000077   0.000000   0.000000   0.155040
  124  H  6  Z   -0.013330   0.003503   0.000000   0.000000   0.021131
  125  H  6 XX   -0.000684  -0.000229   0.000000   0.000000   0.003129
  126  H  6 YY   -0.002359   0.001336   0.000000   0.000000  -0.005464
  127  H  6 ZZ    0.003043  -0.001107   0.000000   0.000000   0.002334
  128  H  6 XY    0.000000   0.000000  -0.001257   0.005471   0.000000
  129  H  6 XZ    0.000000   0.000000  -0.002542   0.002172   0.000000
  130  H  6 YZ    0.000096  -0.001393   0.000000   0.000000  -0.003930

                     11         12         13         14         15
                    0.1824     0.2201     0.2438     0.4002     0.4042
                     B1U        B2U        B3G        B1U        AG  
    1  C  1  S    0.027045   0.000000   0.000000  -0.017556  -0.030967
    2  C  1  S    0.168779   0.000000   0.000000   0.065743  -0.095355
    3  C  1  S    0.083915   0.000000   0.000000  -0.088353   0.004937
    4  C  1  S    3.509337   0.000000   0.000000   4.878368  -1.496520
    5  C  1  X    0.000000   0.000000   0.000000   0.000000   0.000000
    6  C  1  Y    0.000000   0.086435  -0.084448   0.000000   0.000000
    7  C  1  Z   -0.035215   0.000000   0.000000   0.046402  -0.081954
    8  C  1  X    0.000000   0.000000   0.000000   0.000000   0.000000
    9  C  1  Y    0.000000   0.034380  -0.678054   0.000000   0.000000
   10  C  1  Z   -0.062342   0.000000   0.000000   0.813751  -0.558682
   11  C  1  X    0.000000   0.000000   0.000000   0.000000   0.000000
   12  C  1  Y    0.000000   0.994374  -3.374090   0.000000   0.000000
   13  C  1  Z   -0.748844   0.000000   0.000000   6.170880   1.692529
   14  C  1 XX    0.010787   0.000000   0.000000   0.002316   0.011002
   15  C  1 YY   -0.003413   0.000000   0.000000   0.028748   0.011473
   16  C  1 ZZ   -0.007374   0.000000   0.000000  -0.031064  -0.022475
   17  C  1 XY    0.000000   0.000000   0.000000   0.000000   0.000000
   18  C  1 XZ    0.000000   0.000000   0.000000   0.000000   0.000000
   19  C  1 YZ    0.000000   0.019813   0.018959   0.000000   0.000000
   20  C  1 XX   -0.115508   0.000000   0.000000  -0.141935  -0.043206
   21  C  1 YY   -0.003563   0.000000   0.000000  -0.306734  -0.185906
   22  C  1 ZZ    0.119071   0.000000   0.000000   0.448670   0.229112
   23  C  1 XY    0.000000   0.000000   0.000000   0.000000   0.000000
   24  C  1 XZ    0.000000   0.000000   0.000000   0.000000   0.000000
   25  C  1 YZ    0.000000   0.021834   0.156073   0.000000   0.000000
   26  C  1 XXX   0.000000   0.000000   0.000000   0.000000   0.000000
   27  C  1 YYY   0.000000  -0.003408  -0.025236   0.000000   0.000000
   28  C  1 ZZZ  -0.004968   0.000000   0.000000   0.064099   0.004825
   29  C  1 XXY   0.000000   0.007994   0.008363   0.000000   0.000000
   30  C  1 XXZ  -0.003644   0.000000   0.000000  -0.044188  -0.020369
   31  C  1 YYX   0.000000   0.000000   0.000000   0.000000   0.000000
   32  C  1 YYZ   0.010310   0.000000   0.000000  -0.041810   0.013895
   33  C  1 ZZX   0.000000   0.000000   0.000000   0.000000   0.000000
   34  C  1 ZZY   0.000000  -0.003421   0.025495   0.000000   0.000000
   35  C  1 XYZ   0.000000   0.000000   0.000000   0.000000   0.000000
   36  C  2  S   -0.027045   0.000000   0.000000   0.017556  -0.030967
   37  C  2  S   -0.168779   0.000000   0.000000  -0.065743  -0.095355
   38  C  2  S   -0.083915   0.000000   0.000000   0.088353   0.004937
   39  C  2  S   -3.509337   0.000000   0.000000  -4.878368  -1.496520
   40  C  2  X    0.000000   0.000000   0.000000   0.000000   0.000000
   41  C  2  Y    0.000000   0.086435   0.084448   0.000000   0.000000
   42  C  2  Z   -0.035215   0.000000   0.000000   0.046402   0.081954
   43  C  2  X    0.000000   0.000000   0.000000   0.000000   0.000000
   44  C  2  Y    0.000000   0.034380   0.678054   0.000000   0.000000
   45  C  2  Z   -0.062342   0.000000   0.000000   0.813751   0.558682
   46  C  2  X    0.000000   0.000000   0.000000   0.000000   0.000000
   47  C  2  Y    0.000000   0.994374   3.374090   0.000000   0.000000
   48  C  2  Z   -0.748844   0.000000   0.000000   6.170880  -1.692529
   49  C  2 XX   -0.010787   0.000000   0.000000  -0.002316   0.011002
   50  C  2 YY    0.003413   0.000000   0.000000  -0.028748   0.011473
   51  C  2 ZZ    0.007374   0.000000   0.000000   0.031064  -0.022475
   52  C  2 XY    0.000000   0.000000   0.000000   0.000000   0.000000
   53  C  2 XZ    0.000000   0.000000   0.000000   0.000000   0.000000
   54  C  2 YZ    0.000000  -0.019813   0.018959   0.000000   0.000000
   55  C  2 XX    0.115508   0.000000   0.000000   0.141935  -0.043206
   56  C  2 YY    0.003563   0.000000   0.000000   0.306734  -0.185906
   57  C  2 ZZ   -0.119071   0.000000   0.000000  -0.448670   0.229112
   58  C  2 XY    0.000000   0.000000   0.000000   0.000000   0.000000
   59  C  2 XZ    0.000000   0.000000   0.000000   0.000000   0.000000
   60  C  2 YZ    0.000000  -0.021834   0.156073   0.000000   0.000000
   61  C  2 XXX   0.000000   0.000000   0.000000   0.000000   0.000000
   62  C  2 YYY   0.000000  -0.003408   0.025236   0.000000   0.000000
   63  C  2 ZZZ  -0.004968   0.000000   0.000000   0.064099  -0.004825
   64  C  2 XXY   0.000000   0.007994  -0.008363   0.000000   0.000000
   65  C  2 XXZ  -0.003644   0.000000   0.000000  -0.044188   0.020369
   66  C  2 YYX   0.000000   0.000000   0.000000   0.000000   0.000000
   67  C  2 YYZ   0.010310   0.000000   0.000000  -0.041810  -0.013895
   68  C  2 ZZX   0.000000   0.000000   0.000000   0.000000   0.000000
   69  C  2 ZZY   0.000000  -0.003421  -0.025495   0.000000   0.000000
   70  C  2 XYZ   0.000000   0.000000   0.000000   0.000000   0.000000
   71  H  3  S   -0.030304  -0.023966  -0.032524   0.002151   0.005126
   72  H  3  S    0.274965  -0.130911   0.953110  -0.395649   0.159884
   73  H  3  S    1.941536   2.407311   4.229972  -2.327837   0.581587
   74  H  3  X    0.000000   0.000000   0.000000   0.000000   0.000000
   75  H  3  Y   -0.014224  -0.016595  -0.003798  -0.003630   0.001130
   76  H  3  Z    0.009217   0.020874   0.002772   0.008932  -0.021535
   77  H  3  X    0.000000   0.000000   0.000000   0.000000   0.000000
   78  H  3  Y    0.111701   0.061543   0.210527  -0.048467  -0.171964
   79  H  3  Z   -0.034612  -0.062309  -0.309694   0.060995  -0.010713
   80  H  3 XX   -0.004483  -0.002808  -0.013239   0.004195   0.003417
   81  H  3 YY    0.002106   0.003181  -0.001501  -0.015656  -0.014299
   82  H  3 ZZ    0.002377  -0.000372   0.014740   0.011461   0.010882
   83  H  3 XY    0.000000   0.000000   0.000000   0.000000   0.000000
   84  H  3 XZ    0.000000   0.000000   0.000000   0.000000   0.000000
   85  H  3 YZ   -0.003188  -0.001864  -0.016139   0.000822   0.000546
   86  H  4  S    0.030304   0.023966  -0.032524  -0.002151   0.005126
   87  H  4  S   -0.274965   0.130911   0.953110   0.395649   0.159884
   88  H  4  S   -1.941536  -2.407311   4.229972   2.327837   0.581587
   89  H  4  X    0.000000   0.000000   0.000000   0.000000   0.000000
   90  H  4  Y   -0.014224  -0.016595   0.003798  -0.003630  -0.001130
   91  H  4  Z    0.009217   0.020874  -0.002772   0.008932   0.021535
   92  H  4  X    0.000000   0.000000   0.000000   0.000000   0.000000
   93  H  4  Y    0.111701   0.061543  -0.210527  -0.048467   0.171964
   94  H  4  Z   -0.034612  -0.062309   0.309694   0.060995   0.010713
   95  H  4 XX    0.004483   0.002808  -0.013239  -0.004195   0.003417
   96  H  4 YY   -0.002106  -0.003181  -0.001501   0.015656  -0.014299
   97  H  4 ZZ   -0.002377   0.000372   0.014740  -0.011461   0.010882
   98  H  4 XY    0.000000   0.000000   0.000000   0.000000   0.000000
   99  H  4 XZ    0.000000   0.000000   0.000000   0.000000   0.000000
  100  H  4 YZ    0.003188   0.001864  -0.016139  -0.000822   0.000546
  101  H  5  S    0.030304  -0.023966   0.032524  -0.002151   0.005126
  102  H  5  S   -0.274965  -0.130911  -0.953110   0.395649   0.159884
  103  H  5  S   -1.941536   2.407311  -4.229972   2.327837   0.581587
  104  H  5  X    0.000000   0.000000   0.000000   0.000000   0.000000
  105  H  5  Y    0.014224  -0.016595   0.003798   0.003630   0.001130
  106  H  5  Z    0.009217  -0.020874   0.002772   0.008932   0.021535
  107  H  5  X    0.000000   0.000000   0.000000   0.000000   0.000000
  108  H  5  Y   -0.111701   0.061543  -0.210527   0.048467  -0.171964
  109  H  5  Z   -0.034612   0.062309  -0.309694   0.060995   0.010713
  110  H  5 XX    0.004483  -0.002808   0.013239  -0.004195   0.003417
  111  H  5 YY   -0.002106   0.003181   0.001501   0.015656  -0.014299
  112  H  5 ZZ   -0.002377  -0.000372  -0.014740  -0.011461   0.010882
  113  H  5 XY    0.000000   0.000000   0.000000   0.000000   0.000000
  114  H  5 XZ    0.000000   0.000000   0.000000   0.000000   0.000000
  115  H  5 YZ   -0.003188   0.001864  -0.016139   0.000822  -0.000546
  116  H  6  S   -0.030304   0.023966   0.032524   0.002151   0.005126
  117  H  6  S    0.274965   0.130911  -0.953110  -0.395649   0.159884
  118  H  6  S    1.941536  -2.407311  -4.229972  -2.327837   0.581587
  119  H  6  X    0.000000   0.000000   0.000000   0.000000   0.000000
  120  H  6  Y    0.014224  -0.016595  -0.003798   0.003630  -0.001130
  121  H  6  Z    0.009217  -0.020874  -0.002772   0.008932  -0.021535
  122  H  6  X    0.000000   0.000000   0.000000   0.000000   0.000000
  123  H  6  Y   -0.111701   0.061543   0.210527   0.048467   0.171964
  124  H  6  Z   -0.034612   0.062309   0.309694   0.060995  -0.010713
  125  H  6 XX   -0.004483   0.002808   0.013239   0.004195   0.003417
  126  H  6 YY    0.002106  -0.003181   0.001501  -0.015656  -0.014299
  127  H  6 ZZ    0.002377   0.000372  -0.014740   0.011461   0.010882
  128  H  6 XY    0.000000   0.000000   0.000000   0.000000   0.000000
  129  H  6 XZ    0.000000   0.000000   0.000000   0.000000   0.000000
  130  H  6 YZ    0.003188  -0.001864  -0.016139  -0.000822  -0.000546

                     16         17         18         19         20
                    0.4230     0.4509     0.5081     0.5538     0.5886
                     B2U        B3U        AG         B2G        B1U 
    1  C  1  S    0.000000   0.000000   0.090895   0.000000   0.104271
    2  C  1  S    0.000000   0.000000   0.070643   0.000000   0.233379
    3  C  1  S    0.000000   0.000000   0.150199   0.000000   0.213143
    4  C  1  S    0.000000   0.000000   6.044661   0.000000   6.226411
    5  C  1  X    0.000000  -0.142240   0.000000  -0.193445   0.000000
    6  C  1  Y   -0.045909   0.000000   0.000000   0.000000   0.000000
    7  C  1  Z    0.000000   0.000000  -0.026128   0.000000   0.145311
    8  C  1  X    0.000000  -0.420967   0.000000  -0.592259   0.000000
    9  C  1  Y    1.568611   0.000000   0.000000   0.000000   0.000000
   10  C  1  Z    0.000000   0.000000  -1.335346   0.000000  -0.933088
   11  C  1  X    0.000000   0.756315   0.000000   1.483765   0.000000
   12  C  1  Y    2.281999   0.000000   0.000000   0.000000   0.000000
   13  C  1  Z    0.000000   0.000000  -1.511840   0.000000  -2.323063
   14  C  1 XX    0.000000   0.000000   0.006496   0.000000   0.028382
   15  C  1 YY    0.000000   0.000000  -0.004909   0.000000  -0.008774
   16  C  1 ZZ    0.000000   0.000000  -0.001587   0.000000  -0.019607
   17  C  1 XY    0.000000   0.000000   0.000000   0.000000   0.000000
   18  C  1 XZ    0.000000   0.005521   0.000000   0.008013   0.000000
   19  C  1 YZ   -0.005935   0.000000   0.000000   0.000000   0.000000
   20  C  1 XX    0.000000   0.000000  -0.256005   0.000000  -0.198276
   21  C  1 YY    0.000000   0.000000  -0.406137   0.000000   0.256451
   22  C  1 ZZ    0.000000   0.000000   0.662143   0.000000  -0.058175
   23  C  1 XY    0.000000   0.000000   0.000000   0.000000   0.000000
   24  C  1 XZ    0.000000  -0.186165   0.000000   0.148338   0.000000
   25  C  1 YZ   -0.680744   0.000000   0.000000   0.000000   0.000000
   26  C  1 XXX   0.000000  -0.013463   0.000000  -0.003268   0.000000
   27  C  1 YYY   0.019152   0.000000   0.000000   0.000000   0.000000
   28  C  1 ZZZ   0.000000   0.000000  -0.005584   0.000000  -0.078828
   29  C  1 XXY  -0.033476   0.000000   0.000000   0.000000   0.000000
   30  C  1 XXZ   0.000000   0.000000   0.008914   0.000000   0.063602
   31  C  1 YYX   0.000000   0.005314   0.000000  -0.005868   0.000000
   32  C  1 YYZ   0.000000   0.000000  -0.001423   0.000000   0.042157
   33  C  1 ZZX   0.000000   0.012749   0.000000   0.010252   0.000000
   34  C  1 ZZY   0.007781   0.000000   0.000000   0.000000   0.000000
   35  C  1 XYZ   0.000000   0.000000   0.000000   0.000000   0.000000
   36  C  2  S    0.000000   0.000000   0.090895   0.000000  -0.104271
   37  C  2  S    0.000000   0.000000   0.070643   0.000000  -0.233379
   38  C  2  S    0.000000   0.000000   0.150199   0.000000  -0.213143
   39  C  2  S    0.000000   0.000000   6.044661   0.000000  -6.226411
   40  C  2  X    0.000000  -0.142240   0.000000   0.193445   0.000000
   41  C  2  Y   -0.045909   0.000000   0.000000   0.000000   0.000000
   42  C  2  Z    0.000000   0.000000   0.026128   0.000000   0.145311
   43  C  2  X    0.000000  -0.420967   0.000000   0.592259   0.000000
   44  C  2  Y    1.568611   0.000000   0.000000   0.000000   0.000000
   45  C  2  Z    0.000000   0.000000   1.335346   0.000000  -0.933088
   46  C  2  X    0.000000   0.756315   0.000000  -1.483765   0.000000
   47  C  2  Y    2.281999   0.000000   0.000000   0.000000   0.000000
   48  C  2  Z    0.000000   0.000000   1.511840   0.000000  -2.323063
   49  C  2 XX    0.000000   0.000000   0.006496   0.000000  -0.028382
   50  C  2 YY    0.000000   0.000000  -0.004909   0.000000   0.008774
   51  C  2 ZZ    0.000000   0.000000  -0.001587   0.000000   0.019607
   52  C  2 XY    0.000000   0.000000   0.000000   0.000000   0.000000
   53  C  2 XZ    0.000000  -0.005521   0.000000   0.008013   0.000000
   54  C  2 YZ    0.005935   0.000000   0.000000   0.000000   0.000000
   55  C  2 XX    0.000000   0.000000  -0.256005   0.000000   0.198276
   56  C  2 YY    0.000000   0.000000  -0.406137   0.000000  -0.256451
   57  C  2 ZZ    0.000000   0.000000   0.662143   0.000000   0.058175
   58  C  2 XY    0.000000   0.000000   0.000000   0.000000   0.000000
   59  C  2 XZ    0.000000   0.186165   0.000000   0.148338   0.000000
   60  C  2 YZ    0.680744   0.000000   0.000000   0.000000   0.000000
   61  C  2 XXX   0.000000  -0.013463   0.000000   0.003268   0.000000
   62  C  2 YYY   0.019152   0.000000   0.000000   0.000000   0.000000
   63  C  2 ZZZ   0.000000   0.000000   0.005584   0.000000  -0.078828
   64  C  2 XXY  -0.033476   0.000000   0.000000   0.000000   0.000000
   65  C  2 XXZ   0.000000   0.000000  -0.008914   0.000000   0.063602
   66  C  2 YYX   0.000000   0.005314   0.000000   0.005868   0.000000
   67  C  2 YYZ   0.000000   0.000000   0.001423   0.000000   0.042157
   68  C  2 ZZX   0.000000   0.012749   0.000000  -0.010252   0.000000
   69  C  2 ZZY   0.007781   0.000000   0.000000   0.000000   0.000000
   70  C  2 XYZ   0.000000   0.000000   0.000000   0.000000   0.000000
   71  H  3  S    0.089644   0.000000  -0.030411   0.000000   0.034261
   72  H  3  S    2.798466   0.000000  -1.911079   0.000000   1.989078
   73  H  3  S    2.067784   0.000000  -1.812179   0.000000   2.330924
   74  H  3  X    0.000000   0.009955   0.000000  -0.014741   0.000000
   75  H  3  Y    0.019262   0.000000  -0.033589   0.000000   0.039300
   76  H  3  Z   -0.021456   0.000000   0.015012   0.000000  -0.003738
   77  H  3  X    0.000000  -0.156015   0.000000   0.095211   0.000000
   78  H  3  Y    0.490763   0.000000  -0.536568   0.000000   0.282012
   79  H  3  Z   -0.447050   0.000000  -0.097427   0.000000  -0.057779
   80  H  3 XX   -0.011721   0.000000   0.015724   0.000000  -0.019324
   81  H  3 YY    0.002111   0.000000  -0.038165   0.000000   0.031955
   82  H  3 ZZ    0.009611   0.000000   0.022441   0.000000  -0.012631
   83  H  3 XY    0.000000  -0.004820   0.000000  -0.010443   0.000000
   84  H  3 XZ    0.000000  -0.004036   0.000000   0.002213   0.000000
   85  H  3 YZ   -0.020425   0.000000   0.011917   0.000000   0.006780
   86  H  4  S   -0.089644   0.000000  -0.030411   0.000000  -0.034261
   87  H  4  S   -2.798466   0.000000  -1.911079   0.000000  -1.989078
   88  H  4  S   -2.067784   0.000000  -1.812179   0.000000  -2.330924
   89  H  4  X    0.000000   0.009955   0.000000   0.014741   0.000000
   90  H  4  Y    0.019262   0.000000   0.033589   0.000000   0.039300
   91  H  4  Z   -0.021456   0.000000  -0.015012   0.000000  -0.003738
   92  H  4  X    0.000000  -0.156015   0.000000  -0.095211   0.000000
   93  H  4  Y    0.490763   0.000000   0.536568   0.000000   0.282012
   94  H  4  Z   -0.447050   0.000000   0.097427   0.000000  -0.057779
   95  H  4 XX    0.011721   0.000000   0.015724   0.000000   0.019324
   96  H  4 YY   -0.002111   0.000000  -0.038165   0.000000  -0.031955
   97  H  4 ZZ   -0.009611   0.000000   0.022441   0.000000   0.012631
   98  H  4 XY    0.000000   0.004820   0.000000  -0.010443   0.000000
   99  H  4 XZ    0.000000   0.004036   0.000000   0.002213   0.000000
  100  H  4 YZ    0.020425   0.000000   0.011917   0.000000  -0.006780
  101  H  5  S    0.089644   0.000000  -0.030411   0.000000  -0.034261
  102  H  5  S    2.798466   0.000000  -1.911079   0.000000  -1.989078
  103  H  5  S    2.067784   0.000000  -1.812179   0.000000  -2.330924
  104  H  5  X    0.000000   0.009955   0.000000   0.014741   0.000000
  105  H  5  Y    0.019262   0.000000  -0.033589   0.000000  -0.039300
  106  H  5  Z    0.021456   0.000000  -0.015012   0.000000  -0.003738
  107  H  5  X    0.000000  -0.156015   0.000000  -0.095211   0.000000
  108  H  5  Y    0.490763   0.000000  -0.536568   0.000000  -0.282012
  109  H  5  Z    0.447050   0.000000   0.097427   0.000000  -0.057779
  110  H  5 XX   -0.011721   0.000000   0.015724   0.000000   0.019324
  111  H  5 YY    0.002111   0.000000  -0.038165   0.000000  -0.031955
  112  H  5 ZZ    0.009611   0.000000   0.022441   0.000000   0.012631
  113  H  5 XY    0.000000  -0.004820   0.000000   0.010443   0.000000
  114  H  5 XZ    0.000000   0.004036   0.000000   0.002213   0.000000
  115  H  5 YZ    0.020425   0.000000  -0.011917   0.000000   0.006780
  116  H  6  S   -0.089644   0.000000  -0.030411   0.000000   0.034261
  117  H  6  S   -2.798466   0.000000  -1.911079   0.000000   1.989078
  118  H  6  S   -2.067784   0.000000  -1.812179   0.000000   2.330924
  119  H  6  X    0.000000   0.009955   0.000000  -0.014741   0.000000
  120  H  6  Y    0.019262   0.000000   0.033589   0.000000  -0.039300
  121  H  6  Z    0.021456   0.000000   0.015012   0.000000  -0.003738
  122  H  6  X    0.000000  -0.156015   0.000000   0.095211   0.000000
  123  H  6  Y    0.490763   0.000000   0.536568   0.000000  -0.282012
  124  H  6  Z    0.447050   0.000000  -0.097427   0.000000  -0.057779
  125  H  6 XX    0.011721   0.000000   0.015724   0.000000  -0.019324
  126  H  6 YY   -0.002111   0.000000  -0.038165   0.000000   0.031955
  127  H  6 ZZ   -0.009611   0.000000   0.022441   0.000000  -0.012631
  128  H  6 XY    0.000000   0.004820   0.000000   0.010443   0.000000
  129  H  6 XZ    0.000000  -0.004036   0.000000   0.002213   0.000000
  130  H  6 YZ   -0.020425   0.000000  -0.011917   0.000000  -0.006780

                     21         22         23         24         25
                    0.6578     0.7275     0.7375     0.7383     0.7804
                     B3G        B2U        B1U        B1G        AG  
    1  C  1  S    0.000000   0.000000   0.027656   0.000000   0.024279
    2  C  1  S    0.000000   0.000000  -0.268004   0.000000  -0.129821
    3  C  1  S    0.000000   0.000000  -0.083988   0.000000   0.056205
    4  C  1  S    0.000000   0.000000   9.217556   0.000000   4.155065
    5  C  1  X    0.000000   0.000000   0.000000   0.000000   0.000000
    6  C  1  Y   -0.113891  -0.138564   0.000000   0.000000   0.000000
    7  C  1  Z    0.000000   0.000000  -0.185245   0.000000   0.094588
    8  C  1  X    0.000000   0.000000   0.000000   0.000000   0.000000
    9  C  1  Y    2.324995   1.242094   0.000000   0.000000   0.000000
   10  C  1  Z    0.000000   0.000000   0.498480   0.000000  -0.507867
   11  C  1  X    0.000000   0.000000   0.000000   0.000000   0.000000
   12  C  1  Y    8.153342   2.069104   0.000000   0.000000   0.000000
   13  C  1  Z    0.000000   0.000000   3.959959   0.000000  -1.238704
   14  C  1 XX    0.000000   0.000000  -0.005044   0.000000   0.021094
   15  C  1 YY    0.000000   0.000000  -0.003427   0.000000  -0.003486
   16  C  1 ZZ    0.000000   0.000000   0.008471   0.000000  -0.017608
   17  C  1 XY    0.000000   0.000000   0.000000   0.002661   0.000000
   18  C  1 XZ    0.000000   0.000000   0.000000   0.000000   0.000000
   19  C  1 YZ   -0.051084  -0.039538   0.000000   0.000000   0.000000
   20  C  1 XX    0.000000   0.000000  -0.599367   0.000000  -0.542621
   21  C  1 YY    0.000000   0.000000  -0.436186   0.000000   0.210800
   22  C  1 ZZ    0.000000   0.000000   1.035553   0.000000   0.331821
   23  C  1 XY    0.000000   0.000000   0.000000   0.560270   0.000000
   24  C  1 XZ    0.000000   0.000000   0.000000   0.000000   0.000000
   25  C  1 YZ   -1.505974  -0.844166   0.000000   0.000000   0.000000
   26  C  1 XXX   0.000000   0.000000   0.000000   0.000000   0.000000
   27  C  1 YYY   0.041370   0.023425   0.000000   0.000000   0.000000
   28  C  1 ZZZ   0.000000   0.000000   0.076029   0.000000   0.004241
   29  C  1 XXY  -0.047135  -0.013122   0.000000   0.000000   0.000000
   30  C  1 XXZ   0.000000   0.000000  -0.054415   0.000000  -0.000124
   31  C  1 YYX   0.000000   0.000000   0.000000   0.000000   0.000000
   32  C  1 YYZ   0.000000   0.000000  -0.047589   0.000000  -0.005566
   33  C  1 ZZX   0.000000   0.000000   0.000000   0.000000   0.000000
   34  C  1 ZZY  -0.008369  -0.018307   0.000000   0.000000   0.000000
   35  C  1 XYZ   0.000000   0.000000   0.000000  -0.025886   0.000000
   36  C  2  S    0.000000   0.000000  -0.027656   0.000000   0.024279
   37  C  2  S    0.000000   0.000000   0.268004   0.000000  -0.129821
   38  C  2  S    0.000000   0.000000   0.083988   0.000000   0.056205
   39  C  2  S    0.000000   0.000000  -9.217556   0.000000   4.155065
   40  C  2  X    0.000000   0.000000   0.000000   0.000000   0.000000
   41  C  2  Y    0.113891  -0.138564   0.000000   0.000000   0.000000
   42  C  2  Z    0.000000   0.000000  -0.185245   0.000000  -0.094588
   43  C  2  X    0.000000   0.000000   0.000000   0.000000   0.000000
   44  C  2  Y   -2.324995   1.242094   0.000000   0.000000   0.000000
   45  C  2  Z    0.000000   0.000000   0.498480   0.000000   0.507867
   46  C  2  X    0.000000   0.000000   0.000000   0.000000   0.000000
   47  C  2  Y   -8.153342   2.069104   0.000000   0.000000   0.000000
   48  C  2  Z    0.000000   0.000000   3.959959   0.000000   1.238704
   49  C  2 XX    0.000000   0.000000   0.005044   0.000000   0.021094
   50  C  2 YY    0.000000   0.000000   0.003427   0.000000  -0.003486
   51  C  2 ZZ    0.000000   0.000000  -0.008471   0.000000  -0.017608
   52  C  2 XY    0.000000   0.000000   0.000000   0.002661   0.000000
   53  C  2 XZ    0.000000   0.000000   0.000000   0.000000   0.000000
   54  C  2 YZ   -0.051084   0.039538   0.000000   0.000000   0.000000
   55  C  2 XX    0.000000   0.000000   0.599367   0.000000  -0.542621
   56  C  2 YY    0.000000   0.000000   0.436186   0.000000   0.210800
   57  C  2 ZZ    0.000000   0.000000  -1.035553   0.000000   0.331821
   58  C  2 XY    0.000000   0.000000   0.000000   0.560270   0.000000
   59  C  2 XZ    0.000000   0.000000   0.000000   0.000000   0.000000
   60  C  2 YZ   -1.505974   0.844166   0.000000   0.000000   0.000000
   61  C  2 XXX   0.000000   0.000000   0.000000   0.000000   0.000000
   62  C  2 YYY  -0.041370   0.023425   0.000000   0.000000   0.000000
   63  C  2 ZZZ   0.000000   0.000000   0.076029   0.000000  -0.004241
   64  C  2 XXY   0.047135  -0.013122   0.000000   0.000000   0.000000
   65  C  2 XXZ   0.000000   0.000000  -0.054415   0.000000   0.000124
   66  C  2 YYX   0.000000   0.000000   0.000000   0.000000   0.000000
   67  C  2 YYZ   0.000000   0.000000  -0.047589   0.000000   0.005566
   68  C  2 ZZX   0.000000   0.000000   0.000000   0.000000   0.000000
   69  C  2 ZZY   0.008369  -0.018307   0.000000   0.000000   0.000000
   70  C  2 XYZ   0.000000   0.000000   0.000000   0.025886   0.000000
   71  H  3  S   -0.046189  -0.056093  -0.031625   0.000000   0.004116
   72  H  3  S   -5.036259   2.075070   0.465265   0.000000  -0.756640
   73  H  3  S   -5.670462   2.551190  -0.045755   0.000000  -1.534325
   74  H  3  X    0.000000   0.000000   0.000000   0.022466   0.000000
   75  H  3  Y   -0.030130  -0.013480  -0.017980   0.000000   0.018517
   76  H  3  Z    0.032826   0.002300  -0.007329   0.000000  -0.007291
   77  H  3  X    0.000000   0.000000   0.000000  -0.083085   0.000000
   78  H  3  Y   -0.864911   0.666495   0.151776   0.000000  -0.500173
   79  H  3  Z    0.854469  -0.711015  -0.094153   0.000000   0.027990
   80  H  3 XX    0.021395  -0.018925  -0.003047   0.000000   0.004073
   81  H  3 YY   -0.003589   0.002202  -0.016554   0.000000  -0.012583
   82  H  3 ZZ   -0.017806   0.016723   0.019601   0.000000   0.008510
   83  H  3 XY    0.000000   0.000000   0.000000   0.001979   0.000000
   84  H  3 XZ    0.000000   0.000000   0.000000  -0.008986   0.000000
   85  H  3 YZ    0.041301  -0.022584  -0.006080   0.000000   0.000305
   86  H  4  S   -0.046189   0.056093   0.031625   0.000000   0.004116
   87  H  4  S   -5.036259  -2.075070  -0.465265   0.000000  -0.756640
   88  H  4  S   -5.670462  -2.551190   0.045755   0.000000  -1.534325
   89  H  4  X    0.000000   0.000000   0.000000  -0.022466   0.000000
   90  H  4  Y    0.030130  -0.013480  -0.017980   0.000000  -0.018517
   91  H  4  Z   -0.032826   0.002300  -0.007329   0.000000   0.007291
   92  H  4  X    0.000000   0.000000   0.000000   0.083085   0.000000
   93  H  4  Y    0.864911   0.666495   0.151776   0.000000   0.500173
   94  H  4  Z   -0.854469  -0.711015  -0.094153   0.000000  -0.027990
   95  H  4 XX    0.021395   0.018925   0.003047   0.000000   0.004073
   96  H  4 YY   -0.003589  -0.002202   0.016554   0.000000  -0.012583
   97  H  4 ZZ   -0.017806  -0.016723  -0.019601   0.000000   0.008510
   98  H  4 XY    0.000000   0.000000   0.000000   0.001979   0.000000
   99  H  4 XZ    0.000000   0.000000   0.000000  -0.008986   0.000000
  100  H  4 YZ    0.041301   0.022584   0.006080   0.000000   0.000305
  101  H  5  S    0.046189  -0.056093   0.031625   0.000000   0.004116
  102  H  5  S    5.036259   2.075070  -0.465265   0.000000  -0.756640
  103  H  5  S    5.670462   2.551190   0.045755   0.000000  -1.534325
  104  H  5  X    0.000000   0.000000   0.000000   0.022466   0.000000
  105  H  5  Y    0.030130  -0.013480   0.017980   0.000000   0.018517
  106  H  5  Z    0.032826  -0.002300  -0.007329   0.000000   0.007291
  107  H  5  X    0.000000   0.000000   0.000000  -0.083085   0.000000
  108  H  5  Y    0.864911   0.666495  -0.151776   0.000000  -0.500173
  109  H  5  Z    0.854469   0.711015  -0.094153   0.000000  -0.027990
  110  H  5 XX   -0.021395  -0.018925   0.003047   0.000000   0.004073
  111  H  5 YY    0.003589   0.002202   0.016554   0.000000  -0.012583
  112  H  5 ZZ    0.017806   0.016723  -0.019601   0.000000   0.008510
  113  H  5 XY    0.000000   0.000000   0.000000   0.001979   0.000000
  114  H  5 XZ    0.000000   0.000000   0.000000   0.008986   0.000000
  115  H  5 YZ    0.041301   0.022584  -0.006080   0.000000  -0.000305
  116  H  6  S    0.046189   0.056093  -0.031625   0.000000   0.004116
  117  H  6  S    5.036259  -2.075070   0.465265   0.000000  -0.756640
  118  H  6  S    5.670462  -2.551190  -0.045755   0.000000  -1.534325
  119  H  6  X    0.000000   0.000000   0.000000  -0.022466   0.000000
  120  H  6  Y   -0.030130  -0.013480   0.017980   0.000000  -0.018517
  121  H  6  Z   -0.032826  -0.002300  -0.007329   0.000000  -0.007291
  122  H  6  X    0.000000   0.000000   0.000000   0.083085   0.000000
  123  H  6  Y   -0.864911   0.666495  -0.151776   0.000000   0.500173
  124  H  6  Z   -0.854469   0.711015  -0.094153   0.000000   0.027990
  125  H  6 XX   -0.021395   0.018925  -0.003047   0.000000   0.004073
  126  H  6 YY    0.003589  -0.002202  -0.016554   0.000000  -0.012583
  127  H  6 ZZ    0.017806  -0.016723   0.019601   0.000000   0.008510
  128  H  6 XY    0.000000   0.000000   0.000000   0.001979   0.000000
  129  H  6 XZ    0.000000   0.000000   0.000000   0.008986   0.000000
  130  H  6 YZ    0.041301  -0.022584   0.006080   0.000000  -0.000305

                     26         27         28         29         30
                    0.8656     0.8746     0.9260     0.9443     1.1076
                     B3U        B1U        AU         B3G        AG  
    1  C  1  S    0.000000  -0.008928   0.000000   0.000000  -0.025765
    2  C  1  S    0.000000   0.074935   0.000000   0.000000   0.039241
    3  C  1  S    0.000000  -0.134401   0.000000   0.000000  -0.294955
    4  C  1  S    0.000000   1.712424   0.000000   0.000000   2.558103
    5  C  1  X    0.024150   0.000000   0.000000   0.000000   0.000000
    6  C  1  Y    0.000000   0.000000   0.000000  -0.141569   0.000000
    7  C  1  Z    0.000000  -0.156971   0.000000   0.000000  -0.084741
    8  C  1  X   -0.171588   0.000000   0.000000   0.000000   0.000000
    9  C  1  Y    0.000000   0.000000   0.000000  -0.814788   0.000000
   10  C  1  Z    0.000000  -0.149393   0.000000   0.000000  -0.441696
   11  C  1  X   -0.182767   0.000000   0.000000   0.000000   0.000000
   12  C  1  Y    0.000000   0.000000   0.000000  -1.076695   0.000000
   13  C  1  Z    0.000000   2.723658   0.000000   0.000000  -1.579077
   14  C  1 XX    0.000000  -0.024246   0.000000   0.000000  -0.002213
   15  C  1 YY    0.000000   0.001544   0.000000   0.000000   0.007879
   16  C  1 ZZ    0.000000   0.022702   0.000000   0.000000  -0.005666
   17  C  1 XY    0.000000   0.000000  -0.042315   0.000000   0.000000
   18  C  1 XZ    0.002284   0.000000   0.000000   0.000000   0.000000
   19  C  1 YZ    0.000000   0.000000   0.000000   0.004330   0.000000
   20  C  1 XX    0.000000   0.074519   0.000000   0.000000  -0.527411
   21  C  1 YY    0.000000  -0.226540   0.000000   0.000000   0.444255
   22  C  1 ZZ    0.000000   0.152021   0.000000   0.000000   0.083157
   23  C  1 XY    0.000000   0.000000   0.126467   0.000000   0.000000
   24  C  1 XZ   -0.328290   0.000000   0.000000   0.000000   0.000000
   25  C  1 YZ    0.000000   0.000000   0.000000   1.114787   0.000000
   26  C  1 XXX   0.013581   0.000000   0.000000   0.000000   0.000000
   27  C  1 YYY   0.000000   0.000000   0.000000   0.072200   0.000000
   28  C  1 ZZZ   0.000000   0.044502   0.000000   0.000000   0.008855
   29  C  1 XXY   0.000000   0.000000   0.000000   0.020484   0.000000
   30  C  1 XXZ   0.000000   0.002297   0.000000   0.000000   0.052793
   31  C  1 YYX  -0.033660   0.000000   0.000000   0.000000   0.000000
   32  C  1 YYZ   0.000000  -0.062002   0.000000   0.000000  -0.064674
   33  C  1 ZZX   0.015439   0.000000   0.000000   0.000000   0.000000
   34  C  1 ZZY   0.000000   0.000000   0.000000  -0.117351   0.000000
   35  C  1 XYZ   0.000000   0.000000   0.070270   0.000000   0.000000
   36  C  2  S    0.000000   0.008928   0.000000   0.000000  -0.025765
   37  C  2  S    0.000000  -0.074935   0.000000   0.000000   0.039241
   38  C  2  S    0.000000   0.134401   0.000000   0.000000  -0.294955
   39  C  2  S    0.000000  -1.712424   0.000000   0.000000   2.558103
   40  C  2  X    0.024150   0.000000   0.000000   0.000000   0.000000
   41  C  2  Y    0.000000   0.000000   0.000000   0.141569   0.000000
   42  C  2  Z    0.000000  -0.156971   0.000000   0.000000   0.084741
   43  C  2  X   -0.171588   0.000000   0.000000   0.000000   0.000000
   44  C  2  Y    0.000000   0.000000   0.000000   0.814788   0.000000
   45  C  2  Z    0.000000  -0.149393   0.000000   0.000000   0.441696
   46  C  2  X   -0.182767   0.000000   0.000000   0.000000   0.000000
   47  C  2  Y    0.000000   0.000000   0.000000   1.076695   0.000000
   48  C  2  Z    0.000000   2.723658   0.000000   0.000000   1.579077
   49  C  2 XX    0.000000   0.024246   0.000000   0.000000  -0.002213
   50  C  2 YY    0.000000  -0.001544   0.000000   0.000000   0.007879
   51  C  2 ZZ    0.000000  -0.022702   0.000000   0.000000  -0.005666
   52  C  2 XY    0.000000   0.000000   0.042315   0.000000   0.000000
   53  C  2 XZ   -0.002284   0.000000   0.000000   0.000000   0.000000
   54  C  2 YZ    0.000000   0.000000   0.000000   0.004330   0.000000
   55  C  2 XX    0.000000  -0.074519   0.000000   0.000000  -0.527411
   56  C  2 YY    0.000000   0.226540   0.000000   0.000000   0.444255
   57  C  2 ZZ    0.000000  -0.152021   0.000000   0.000000   0.083157
   58  C  2 XY    0.000000   0.000000  -0.126467   0.000000   0.000000
   59  C  2 XZ    0.328290   0.000000   0.000000   0.000000   0.000000
   60  C  2 YZ    0.000000   0.000000   0.000000   1.114787   0.000000
   61  C  2 XXX   0.013581   0.000000   0.000000   0.000000   0.000000
   62  C  2 YYY   0.000000   0.000000   0.000000  -0.072200   0.000000
   63  C  2 ZZZ   0.000000   0.044502   0.000000   0.000000  -0.008855
   64  C  2 XXY   0.000000   0.000000   0.000000  -0.020484   0.000000
   65  C  2 XXZ   0.000000   0.002297   0.000000   0.000000  -0.052793
   66  C  2 YYX  -0.033660   0.000000   0.000000   0.000000   0.000000
   67  C  2 YYZ   0.000000  -0.062002   0.000000   0.000000   0.064674
   68  C  2 ZZX   0.015439   0.000000   0.000000   0.000000   0.000000
   69  C  2 ZZY   0.000000   0.000000   0.000000   0.117351   0.000000
   70  C  2 XYZ   0.000000   0.000000   0.070270   0.000000   0.000000
   71  H  3  S    0.000000   0.042389   0.000000   0.092706  -0.035119
   72  H  3  S    0.000000   0.403596   0.000000   2.243110  -1.110320
   73  H  3  S    0.000000  -1.462945   0.000000  -0.264428  -0.570816
   74  H  3  X   -0.012304   0.000000  -0.006157   0.000000   0.000000
   75  H  3  Y    0.000000   0.030225   0.000000   0.038275  -0.021539
   76  H  3  Z    0.000000  -0.025234   0.000000  -0.014068   0.039186
   77  H  3  X    0.381838   0.000000   0.604223   0.000000   0.000000
   78  H  3  Y    0.000000  -0.411610   0.000000   0.158560   0.262463
   79  H  3  Z    0.000000   0.099854   0.000000   0.511042  -0.641315
   80  H  3 XX    0.000000   0.007477   0.000000   0.027260  -0.016346
   81  H  3 YY    0.000000  -0.011067   0.000000   0.027411   0.008050
   82  H  3 ZZ    0.000000   0.003590   0.000000  -0.054671   0.008296
   83  H  3 XY    0.014754   0.000000   0.040744   0.000000   0.000000
   84  H  3 XZ   -0.016824   0.000000  -0.030046   0.000000   0.000000
   85  H  3 YZ    0.000000   0.012516   0.000000   0.013704  -0.053504
   86  H  4  S    0.000000  -0.042389   0.000000   0.092706  -0.035119
   87  H  4  S    0.000000  -0.403596   0.000000   2.243110  -1.110320
   88  H  4  S    0.000000   1.462945   0.000000  -0.264428  -0.570816
   89  H  4  X   -0.012304   0.000000  -0.006157   0.000000   0.000000
   90  H  4  Y    0.000000   0.030225   0.000000  -0.038275   0.021539
   91  H  4  Z    0.000000  -0.025234   0.000000   0.014068  -0.039186
   92  H  4  X    0.381838   0.000000   0.604223   0.000000   0.000000
   93  H  4  Y    0.000000  -0.411610   0.000000  -0.158560  -0.262463
   94  H  4  Z    0.000000   0.099854   0.000000  -0.511042   0.641315
   95  H  4 XX    0.000000  -0.007477   0.000000   0.027260  -0.016346
   96  H  4 YY    0.000000   0.011067   0.000000   0.027411   0.008050
   97  H  4 ZZ    0.000000  -0.003590   0.000000  -0.054671   0.008296
   98  H  4 XY   -0.014754   0.000000  -0.040744   0.000000   0.000000
   99  H  4 XZ    0.016824   0.000000   0.030046   0.000000   0.000000
  100  H  4 YZ    0.000000  -0.012516   0.000000   0.013704  -0.053504
  101  H  5  S    0.000000  -0.042389   0.000000  -0.092706  -0.035119
  102  H  5  S    0.000000  -0.403596   0.000000  -2.243110  -1.110320
  103  H  5  S    0.000000   1.462945   0.000000   0.264428  -0.570816
  104  H  5  X   -0.012304   0.000000   0.006157   0.000000   0.000000
  105  H  5  Y    0.000000  -0.030225   0.000000  -0.038275  -0.021539
  106  H  5  Z    0.000000  -0.025234   0.000000  -0.014068  -0.039186
  107  H  5  X    0.381838   0.000000  -0.604223   0.000000   0.000000
  108  H  5  Y    0.000000   0.411610   0.000000  -0.158560   0.262463
  109  H  5  Z    0.000000   0.099854   0.000000   0.511042   0.641315
  110  H  5 XX    0.000000  -0.007477   0.000000  -0.027260  -0.016346
  111  H  5 YY    0.000000   0.011067   0.000000  -0.027411   0.008050
  112  H  5 ZZ    0.000000  -0.003590   0.000000   0.054671   0.008296
  113  H  5 XY    0.014754   0.000000  -0.040744   0.000000   0.000000
  114  H  5 XZ    0.016824   0.000000  -0.030046   0.000000   0.000000
  115  H  5 YZ    0.000000   0.012516   0.000000   0.013704   0.053504
  116  H  6  S    0.000000   0.042389   0.000000  -0.092706  -0.035119
  117  H  6  S    0.000000   0.403596   0.000000  -2.243110  -1.110320
  118  H  6  S    0.000000  -1.462945   0.000000   0.264428  -0.570816
  119  H  6  X   -0.012304   0.000000   0.006157   0.000000   0.000000
  120  H  6  Y    0.000000  -0.030225   0.000000   0.038275   0.021539
  121  H  6  Z    0.000000  -0.025234   0.000000   0.014068   0.039186
  122  H  6  X    0.381838   0.000000  -0.604223   0.000000   0.000000
  123  H  6  Y    0.000000   0.411610   0.000000   0.158560  -0.262463
  124  H  6  Z    0.000000   0.099854   0.000000  -0.511042  -0.641315
  125  H  6 XX    0.000000   0.007477   0.000000  -0.027260  -0.016346
  126  H  6 YY    0.000000  -0.011067   0.000000  -0.027411   0.008050
  127  H  6 ZZ    0.000000   0.003590   0.000000   0.054671   0.008296
  128  H  6 XY   -0.014754   0.000000   0.040744   0.000000   0.000000
  129  H  6 XZ   -0.016824   0.000000   0.030046   0.000000   0.000000
  130  H  6 YZ    0.000000  -0.012516   0.000000   0.013704   0.053504

                     31         32         33         34         35
                    1.1381     1.1680     1.2592     1.2685     1.3186
                     B2U        AG         B2G        B1G        B1U 
    1  C  1  S    0.000000  -0.018164   0.000000   0.000000  -0.068423
    2  C  1  S    0.000000  -0.061796   0.000000   0.000000  -0.069314
    3  C  1  S    0.000000  -0.049228   0.000000   0.000000  -0.194643
    4  C  1  S    0.000000   0.974762   0.000000   0.000000   1.196238
    5  C  1  X    0.000000   0.000000   0.140791   0.000000   0.000000
    6  C  1  Y    0.137613   0.000000   0.000000   0.000000   0.000000
    7  C  1  Z    0.000000   0.043091   0.000000   0.000000   0.178760
    8  C  1  X    0.000000   0.000000   1.268512   0.000000   0.000000
    9  C  1  Y    4.219965   0.000000   0.000000   0.000000   0.000000
   10  C  1  Z    0.000000  -0.032802   0.000000   0.000000   3.028336
   11  C  1  X    0.000000   0.000000   0.974855   0.000000   0.000000
   12  C  1  Y    1.462940   0.000000   0.000000   0.000000   0.000000
   13  C  1  Z    0.000000   0.573172   0.000000   0.000000   4.519646
   14  C  1 XX    0.000000   0.006794   0.000000   0.000000   0.018141
   15  C  1 YY    0.000000   0.041369   0.000000   0.000000   0.045839
   16  C  1 ZZ    0.000000  -0.048164   0.000000   0.000000  -0.063980
   17  C  1 XY    0.000000   0.000000   0.000000   0.084785   0.000000
   18  C  1 XZ    0.000000   0.000000  -0.073715   0.000000   0.000000
   19  C  1 YZ   -0.121416   0.000000   0.000000   0.000000   0.000000
   20  C  1 XX    0.000000  -0.662869   0.000000   0.000000   0.279281
   21  C  1 YY    0.000000   0.682563   0.000000   0.000000  -0.254836
   22  C  1 ZZ    0.000000  -0.019694   0.000000   0.000000  -0.024445
[...]
  110  H  5 XX    0.006001   0.002615   0.005259   0.003452   0.006652
  111  H  5 YY   -0.003940  -0.002943  -0.003492  -0.003913  -0.012660
  112  H  5 ZZ   -0.002060   0.000328  -0.001767   0.000461   0.006008
  113  H  5 XY    0.000000   0.000000   0.000000   0.000000   0.000000
  114  H  5 XZ    0.000000   0.000000   0.000000   0.000000   0.000000
  115  H  5 YZ   -0.005154  -0.004077  -0.011502  -0.010097   0.000928
  116  H  6  S    0.003341   0.013082   0.025734   0.026183   0.018039
  117  H  6  S    0.249421   0.073158  -0.245134   0.294117   0.371707
  118  H  6  S    1.356216   1.557514  -2.460134   1.303298   0.139408
  119  H  6  X    0.000000   0.000000   0.000000   0.000000   0.000000
  120  H  6  Y    0.013177   0.010006  -0.009600   0.006331  -0.000466
  121  H  6  Z    0.008126   0.012977  -0.012732  -0.017317  -0.009461
  122  H  6  X    0.000000   0.000000   0.000000   0.000000   0.000000
  123  H  6  Y   -0.145023  -0.084730   0.121942  -0.078987   0.064755
  124  H  6  Z   -0.097014  -0.077663   0.130774  -0.023398  -0.032978
  125  H  6 XX   -0.006001  -0.002615   0.005259  -0.003452   0.006652
  126  H  6 YY    0.003940   0.002943  -0.003492   0.003913  -0.012660
  127  H  6 ZZ    0.002060  -0.000328  -0.001767  -0.000461   0.006008
  128  H  6 XY    0.000000   0.000000   0.000000   0.000000   0.000000
  129  H  6 XZ    0.000000   0.000000   0.000000   0.000000   0.000000
  130  H  6 YZ    0.005154   0.004077  -0.011502   0.010097   0.000928

                     16         17         18
                    0.4402     0.4482     0.4873
                     B2U        B3U        AG  
    1  C  1  S    0.000000   0.000000  -0.029769
    2  C  1  S    0.000000   0.000000  -0.120934
    3  C  1  S    0.000000   0.000000  -0.064739
    4  C  1  S    0.000000   0.000000   2.033023
    5  C  1  X    0.000000   0.137083   0.000000
    6  C  1  Y   -0.008843   0.000000   0.000000
    7  C  1  Z    0.000000   0.000000  -0.067608
    8  C  1  X    0.000000   0.545217   0.000000
    9  C  1  Y    0.400517   0.000000   0.000000
   10  C  1  Z    0.000000   0.000000  -0.599110
   11  C  1  X    0.000000  -0.724483   0.000000
   12  C  1  Y    1.159548   0.000000   0.000000
   13  C  1  Z    0.000000   0.000000  -0.031974
   14  C  1 XX    0.000000   0.000000  -0.004161
   15  C  1 YY    0.000000   0.000000   0.030635
   16  C  1 ZZ    0.000000   0.000000  -0.026474
   17  C  1 XY    0.000000   0.000000   0.000000
   18  C  1 XZ    0.000000   0.003745   0.000000
   19  C  1 YZ    0.026430   0.000000   0.000000
   20  C  1 XX    0.000000   0.000000  -0.061809
   21  C  1 YY    0.000000   0.000000   0.081668
   22  C  1 ZZ    0.000000   0.000000  -0.019859
   23  C  1 XY    0.000000   0.000000   0.000000
   24  C  1 XZ    0.000000   0.111000   0.000000
   25  C  1 YZ   -0.278220   0.000000   0.000000
   26  C  1 XXX   0.000000   0.006984   0.000000
   27  C  1 YYY   0.009050   0.000000   0.000000
   28  C  1 ZZZ   0.000000   0.000000   0.042749
   29  C  1 XXY  -0.033881   0.000000   0.000000
   30  C  1 XXZ   0.000000   0.000000   0.015111
   31  C  1 YYX   0.000000  -0.003925   0.000000
   32  C  1 YYZ   0.000000   0.000000  -0.072465
   33  C  1 ZZX   0.000000  -0.005444   0.000000
   34  C  1 ZZY   0.021740   0.000000   0.000000
   35  C  1 XYZ   0.000000   0.000000   0.000000
   36  C  2  S    0.000000   0.000000  -0.029769
   37  C  2  S    0.000000   0.000000  -0.120934
   38  C  2  S    0.000000   0.000000  -0.064739
   39  C  2  S    0.000000   0.000000   2.033023
   40  C  2  X    0.000000   0.137083   0.000000
   41  C  2  Y   -0.008843   0.000000   0.000000
   42  C  2  Z    0.000000   0.000000   0.067608
   43  C  2  X    0.000000   0.545217   0.000000
   44  C  2  Y    0.400517   0.000000   0.000000
   45  C  2  Z    0.000000   0.000000   0.599110
   46  C  2  X    0.000000  -0.724483   0.000000
   47  C  2  Y    1.159548   0.000000   0.000000
   48  C  2  Z    0.000000   0.000000   0.031974
   49  C  2 XX    0.000000   0.000000  -0.004161
   50  C  2 YY    0.000000   0.000000   0.030635
   51  C  2 ZZ    0.000000   0.000000  -0.026474
   52  C  2 XY    0.000000   0.000000   0.000000
   53  C  2 XZ    0.000000  -0.003745   0.000000
   54  C  2 YZ   -0.026430   0.000000   0.000000
   55  C  2 XX    0.000000   0.000000  -0.061809
   56  C  2 YY    0.000000   0.000000   0.081668
   57  C  2 ZZ    0.000000   0.000000  -0.019859
   58  C  2 XY    0.000000   0.000000   0.000000
   59  C  2 XZ    0.000000  -0.111000   0.000000
   60  C  2 YZ    0.278220   0.000000   0.000000
   61  C  2 XXX   0.000000   0.006984   0.000000
   62  C  2 YYY   0.009050   0.000000   0.000000
   63  C  2 ZZZ   0.000000   0.000000  -0.042749
   64  C  2 XXY  -0.033881   0.000000   0.000000
   65  C  2 XXZ   0.000000   0.000000  -0.015111
   66  C  2 YYX   0.000000  -0.003925   0.000000
   67  C  2 YYZ   0.000000   0.000000   0.072465
   68  C  2 ZZX   0.000000  -0.005444   0.000000
   69  C  2 ZZY   0.021740   0.000000   0.000000
   70  C  2 XYZ   0.000000   0.000000   0.000000
   71  H  3  S    0.059101   0.000000  -0.024380
   72  H  3  S    1.099449   0.000000  -1.032815
   73  H  3  S    0.317604   0.000000  -0.318949
   74  H  3  X    0.000000  -0.006341   0.000000
   75  H  3  Y    0.018990   0.000000  -0.018380
   76  H  3  Z   -0.011787   0.000000   0.004603
   77  H  3  X    0.000000   0.048333   0.000000
   78  H  3  Y    0.185929   0.000000  -0.228463
   79  H  3  Z   -0.009371   0.000000   0.165297
   80  H  3 XX   -0.004519   0.000000   0.023746
   81  H  3 YY    0.013193   0.000000  -0.025374
   82  H  3 ZZ   -0.008674   0.000000   0.001628
   83  H  3 XY    0.000000   0.001738   0.000000
   84  H  3 XZ    0.000000   0.000507   0.000000
   85  H  3 YZ   -0.012828   0.000000   0.026315
   86  H  4  S   -0.059101   0.000000  -0.024380
   87  H  4  S   -1.099449   0.000000  -1.032815
   88  H  4  S   -0.317604   0.000000  -0.318949
   89  H  4  X    0.000000  -0.006341   0.000000
   90  H  4  Y    0.018990   0.000000   0.018380
   91  H  4  Z   -0.011787   0.000000  -0.004603
   92  H  4  X    0.000000   0.048333   0.000000
   93  H  4  Y    0.185929   0.000000   0.228463
   94  H  4  Z   -0.009371   0.000000  -0.165297
   95  H  4 XX    0.004519   0.000000   0.023746
   96  H  4 YY   -0.013193   0.000000  -0.025374
   97  H  4 ZZ    0.008674   0.000000   0.001628
   98  H  4 XY    0.000000  -0.001738   0.000000
   99  H  4 XZ    0.000000  -0.000507   0.000000
  100  H  4 YZ    0.012828   0.000000   0.026315
  101  H  5  S    0.059101   0.000000  -0.024380
  102  H  5  S    1.099449   0.000000  -1.032815
  103  H  5  S    0.317604   0.000000  -0.318949
  104  H  5  X    0.000000  -0.006341   0.000000
  105  H  5  Y    0.018990   0.000000  -0.018380
  106  H  5  Z    0.011787   0.000000  -0.004603
  107  H  5  X    0.000000   0.048333   0.000000
  108  H  5  Y    0.185929   0.000000  -0.228463
  109  H  5  Z    0.009371   0.000000  -0.165297
  110  H  5 XX   -0.004519   0.000000   0.023746
  111  H  5 YY    0.013193   0.000000  -0.025374
  112  H  5 ZZ   -0.008674   0.000000   0.001628
  113  H  5 XY    0.000000   0.001738   0.000000
  114  H  5 XZ    0.000000  -0.000507   0.000000
  115  H  5 YZ    0.012828   0.000000  -0.026315
  116  H  6  S   -0.059101   0.000000  -0.024380
  117  H  6  S   -1.099449   0.000000  -1.032815
  118  H  6  S   -0.317604   0.000000  -0.318949
  119  H  6  X    0.000000  -0.006341   0.000000
  120  H  6  Y    0.018990   0.000000   0.018380
  121  H  6  Z    0.011787   0.000000   0.004603
  122  H  6  X    0.000000   0.048333   0.000000
  123  H  6  Y    0.185929   0.000000   0.228463
  124  H  6  Z    0.009371   0.000000   0.165297
  125  H  6 XX    0.004519   0.000000   0.023746
  126  H  6 YY   -0.013193   0.000000  -0.025374
  127  H  6 ZZ    0.008674   0.000000   0.001628
  128  H  6 XY    0.000000  -0.001738   0.000000
  129  H  6 XZ    0.000000   0.000507   0.000000
  130  H  6 YZ   -0.012828   0.000000  -0.026315

     ----------------------------------------------------------------
     PROPERTY VALUES FOR THE RHF   SELF-CONSISTENT FIELD WAVEFUNCTION
     ----------------------------------------------------------------

          ---------------------------------------
          MULLIKEN AND LOWDIN POPULATION ANALYSES
          ---------------------------------------

               ----- POPULATIONS IN EACH AO -----
                             MULLIKEN      LOWDIN
              1  C  1  S      1.95629     1.55903
              2  C  1  S      0.83349     0.43856
              3  C  1  S      0.15845     0.27885
              4  C  1  S      0.35409     0.15560
              5  C  1  X      0.19877     0.15834
              6  C  1  Y      0.28605     0.21408
              7  C  1  Z      0.31678     0.24659
              8  C  1  X      0.42461     0.22524
              9  C  1  Y      0.53255     0.27239
             10  C  1  Z      0.51376     0.28343
             11  C  1  X      0.33429     0.28319
             12  C  1  Y      0.19235     0.20848
             13  C  1  Z      0.09305     0.16317
             14  C  1 XX      0.00590     0.07419
             15  C  1 YY      0.00278     0.09118
             16  C  1 ZZ      0.00000     0.10683
             17  C  1 XY      0.00303     0.00000
             18  C  1 XZ      0.00755     0.00274
             19  C  1 YZ      0.00000     0.00712
             20  C  1 XX      0.00337     0.04907
             21  C  1 YY      0.00794     0.09973
             22  C  1 ZZ      0.00000     0.11638
             23  C  1 XY      0.01686     0.00000
             24  C  1 XZ      0.03526     0.02989
             25  C  1 YZ      0.00000     0.09039
             26  C  1 XXX     0.00003     0.10913
             27  C  1 YYY     0.00096     0.16379
             28  C  1 ZZZ     0.00189     0.18865
             29  C  1 XXY     0.00179     0.05788
             30  C  1 XXZ     0.00144     0.06419
             31  C  1 YYX     0.00000     0.04603
             32  C  1 YYZ     0.00049     0.08959
             33  C  1 ZZX     0.00000     0.07661
             34  C  1 ZZY     0.00000     0.08829
             35  C  1 XYZ     0.00000     0.00000
             36  C  2  S      1.95629     1.55903
             37  C  2  S      0.83349     0.43856
             38  C  2  S      0.15845     0.27885
             39  C  2  S      0.35409     0.15560
             40  C  2  X      0.19877     0.15834
             41  C  2  Y      0.28605     0.21408
             42  C  2  Z      0.31678     0.24659
             43  C  2  X      0.42461     0.22524
             44  C  2  Y      0.53255     0.27239
             45  C  2  Z      0.51376     0.28343
             46  C  2  X      0.33429     0.28319
             47  C  2  Y      0.19235     0.20848
             48  C  2  Z      0.09305     0.16317
             49  C  2 XX      0.00590     0.07419
             50  C  2 YY      0.00278     0.09118
             51  C  2 ZZ      0.00000     0.10683
             52  C  2 XY      0.00303     0.00000
             53  C  2 XZ      0.00755     0.00274
             54  C  2 YZ      0.00000     0.00712
             55  C  2 XX      0.00337     0.04907
             56  C  2 YY      0.00794     0.09973
             57  C  2 ZZ      0.00000     0.11638
             58  C  2 XY      0.01686     0.00000
             59  C  2 XZ      0.03526     0.02989
             60  C  2 YZ      0.00000     0.09039
             61  C  2 XXX     0.00003     0.10913
             62  C  2 YYY     0.00096     0.16379
             63  C  2 ZZZ     0.00189     0.18865
             64  C  2 XXY     0.00179     0.05788
             65  C  2 XXZ     0.00144     0.06419
             66  C  2 YYX     0.00000     0.04603
             67  C  2 YYZ     0.00049     0.08959
             68  C  2 ZZX     0.00000     0.07661
             69  C  2 ZZY     0.00000     0.08829
             70  C  2 XYZ     0.00000     0.00000
             71  H  3  S      0.26691     0.19960
             72  H  3  S      0.46649     0.25968
             73  H  3  S      0.09772     0.13843
             74  H  3  X      0.00108     0.00150
             75  H  3  Y      0.00550     0.00694
             76  H  3  Z      0.00255     0.00378
             77  H  3  X      0.00855     0.02912
             78  H  3  Y      0.00374     0.04003
             79  H  3  Z      0.00344     0.02686
             80  H  3 XX      0.00055     0.07214
             81  H  3 YY      0.00043     0.10626
             82  H  3 ZZ      0.00036     0.08635
             83  H  3 XY      0.00027     0.00244
             84  H  3 XZ      0.00051     0.00134
             85  H  3 YZ      0.00000     0.00620
             86  H  4  S      0.26691     0.19960
             87  H  4  S      0.46649     0.25968
             88  H  4  S      0.09772     0.13843
             89  H  4  X      0.00108     0.00150
             90  H  4  Y      0.00550     0.00694
             91  H  4  Z      0.00255     0.00378
             92  H  4  X      0.00855     0.02912
             93  H  4  Y      0.00374     0.04003
             94  H  4  Z      0.00344     0.02686
             95  H  4 XX      0.00055     0.07214
             96  H  4 YY      0.00043     0.10626
             97  H  4 ZZ      0.00036     0.08635
             98  H  4 XY      0.00027     0.00244
             99  H  4 XZ      0.00051     0.00134
            100  H  4 YZ      0.00000     0.00620
            101  H  5  S      0.26691     0.19960
            102  H  5  S      0.46649     0.25968
            103  H  5  S      0.09772     0.13843
            104  H  5  X      0.00108     0.00150
            105  H  5  Y      0.00550     0.00694
            106  H  5  Z      0.00255     0.00378
            107  H  5  X      0.00855     0.02912
            108  H  5  Y      0.00374     0.04003
            109  H  5  Z      0.00344     0.02686
            110  H  5 XX      0.00055     0.07214
            111  H  5 YY      0.00043     0.10626
            112  H  5 ZZ      0.00036     0.08635
            113  H  5 XY      0.00027     0.00244
            114  H  5 XZ      0.00051     0.00134
            115  H  5 YZ      0.00000     0.00620
            116  H  6  S      0.26691     0.19960
            117  H  6  S      0.46649     0.25968
            118  H  6  S      0.09772     0.13843
            119  H  6  X      0.00108     0.00150
            120  H  6  Y      0.00550     0.00694
            121  H  6  Z      0.00255     0.00378
            122  H  6  X      0.00855     0.02912
            123  H  6  Y      0.00374     0.04003
            124  H  6  Z      0.00344     0.02686
            125  H  6 XX      0.00055     0.07214
            126  H  6 YY      0.00043     0.10626
            127  H  6 ZZ      0.00036     0.08635
            128  H  6 XY      0.00027     0.00244
            129  H  6 XZ      0.00051     0.00134
            130  H  6 YZ      0.00000     0.00620

          ----- MULLIKEN ATOMIC OVERLAP POPULATIONS -----
          (OFF-DIAGONAL ELEMENTS NEED TO BE MULTIPLIED BY 2)

             1           2           3           4           5

    1    4.9060097
    2    0.6296973   4.9060097
    3   -0.0453456   0.4194023   0.5156607
    4    0.4194023  -0.0453456   0.0048121   0.5156607
    5    0.4194023  -0.0453456  -0.0050053  -0.0314343   0.5156607
    6   -0.0453456   0.4194023  -0.0314343  -0.0050053   0.0048121

             6

    6    0.5156607

          TOTAL MULLIKEN AND LOWDIN ATOMIC POPULATIONS
       ATOM         MULL.POP.    CHARGE          LOW.POP.     CHARGE
    1 CARBON        6.283820   -0.283820         6.038638   -0.038638
    2 CARBON        6.283820   -0.283820         6.038638   -0.038638
    3 HYDROGEN      0.858090    0.141910         0.980681    0.019319
    4 HYDROGEN      0.858090    0.141910         0.980681    0.019319
    5 HYDROGEN      0.858090    0.141910         0.980681    0.019319
    6 HYDROGEN      0.858090    0.141910         0.980681    0.019319

          MULLIKEN SPHERICAL HARMONIC POPULATIONS
       ATOM           S       P       D      F      G      H      I    TOTAL
    1 CARBON        3.30    2.89    0.08   0.01   0.00   0.00   0.00    6.28
    2 CARBON        3.30    2.89    0.08   0.01   0.00   0.00   0.00    6.28
    3 HYDROGEN      0.83    0.02    0.00   0.00   0.00   0.00   0.00    0.86
    4 HYDROGEN      0.83    0.02    0.00   0.00   0.00   0.00   0.00    0.86
    5 HYDROGEN      0.83    0.02    0.00   0.00   0.00   0.00   0.00    0.86
    6 HYDROGEN      0.83    0.02    0.00   0.00   0.00   0.00   0.00    0.86

          -------------------------------
          BOND ORDER AND VALENCE ANALYSIS     BOND ORDER THRESHOLD=0.050
          -------------------------------

                   BOND                       BOND                       BOND
  ATOM PAIR DIST  ORDER      ATOM PAIR DIST  ORDER      ATOM PAIR DIST  ORDER
    1   2  1.337  1.890        1   4  1.083  0.967        1   5  1.083  0.967
    2   3  1.083  0.967        2   6  1.083  0.967

                       TOTAL       BONDED        FREE
      ATOM            VALENCE     VALENCE     VALENCE
    1 CARBON            3.827       3.827       0.000
    2 CARBON            3.827       3.827       0.000
    3 HYDROGEN          0.974       0.974       0.000
    4 HYDROGEN          0.974       0.974       0.000
    5 HYDROGEN          0.974       0.974       0.000
    6 HYDROGEN          0.974       0.974       0.000

          ---------------------
          ELECTROSTATIC MOMENTS
          ---------------------

 POINT   1           X           Y           Z (BOHR)    CHARGE
                 0.000000    0.000000    0.000000        0.00 (A.U.)
         DX          DY          DZ         /D/  (DEBYE)
     0.000000    0.000000    0.000000    0.000000
 ...... END OF PROPERTY EVALUATION ......
 CPU     0: STEP CPU TIME=     0.09 TOTAL CPU TIME=    10549.7 (  175.8 MIN)
 TOTAL WALL CLOCK TIME=    10549.7 SECONDS, CPU UTILIZATION IS 100.00%
  $VIB   
          IVIB=   0 IATOM=   0 ICOORD=   0 E=      -78.4388035020
  0.000000000E+00 0.000000000E+00 4.384140484E-05 0.000000000E+00 0.000000000E+00
 -4.384140484E-05 0.000000000E+00-2.226389491E-05 1.435487142E-05 0.000000000E+00
  2.226389491E-05-1.435487142E-05 0.000000000E+00-2.226389491E-05-1.435487142E-05
  0.000000000E+00 2.226389491E-05 1.435487142E-05
 -1.030785295E-17-3.386312564E-15-3.273435478E-14
 ......END OF GEOMETRY SEARCH......
 CPU     0: STEP CPU TIME=     0.00 TOTAL CPU TIME=    10549.7 (  175.8 MIN)
 TOTAL WALL CLOCK TIME=    10549.7 SECONDS, CPU UTILIZATION IS 100.00%
                  4138779  WORDS OF DYNAMIC MEMORY USED
 EXECUTION OF GAMESS TERMINATED NORMALLY Fri Sep 08 17:25:42 2017
 DDI: 19372728 bytes (18.5 MB / 2 MWords) used by master data server.

 ----------------------------------------
 CPU timing information for all processes
 ========================================
 0: 7760.987349 + 125.471604 = 7886.458953
 1: 8117.059632 + 103.179061 = 8220.238693
 2: 7807.850050 + 99.357036 = 7907.207086
 3: 7830.204993 + 98.951434 = 7929.156427
 4: 1712.001774 + 98.265029 = 1810.266803
 5: 1321.312869 + 75.239282 = 1396.552151
 6: 1398.502164 + 73.117668 = 1471.619832
 7: 1152.519787 + 66.908828 = 1219.428615
 ----------------------------------------
           Disk usage (in bytes)       
 ========================================
 ----------------------------------------
            Local date and time          
 ========================================
08.09.2017 - 17:25:48.82                          
