          ******************************************************
          *         GAMESS VERSION =  1 MAY 2013 (R1)          *
          *             FROM IOWA STATE UNIVERSITY             *
          * M.W.SCHMIDT, K.K.BALDRIDGE, J.A.BOATZ, S.T.ELBERT, *
          *   M.S.GORDON, J.H.JENSEN, S.KOSEKI, N.MATSUNAGA,   *
          *          K.A.NGUYEN, S.J.SU, T.L.WINDUS,           *
          *       TOGETHER WITH M.DUPUIS, J.A.MONTGOMERY       *
          *         J.COMPUT.CHEM.  14, 1347-1363(1993)        *
          *************** 64 BIT WINDOWS VERSION ***************

  SINCE 1993, STUDENTS AND POSTDOCS WORKING AT IOWA STATE UNIVERSITY
  AND ALSO IN THEIR VARIOUS JOBS AFTER LEAVING ISU HAVE MADE IMPORTANT
  CONTRIBUTIONS TO THE CODE:
     IVANA ADAMOVIC, CHRISTINE AIKENS, YURI ALEXEEV, POOJA ARORA,
     ANDREY ASADCHEV, ROB BELL, PRADIPTA BANDYOPADHYAY, JONATHAN BENTZ,
     BRETT BODE, GALINA CHABAN, WEI CHEN, CHEOL HO CHOI, PAUL DAY,
     ALBERT DEFUSCO, TIM DUDLEY, DMITRI FEDOROV, GRAHAM FLETCHER,
     MARK FREITAG, KURT GLAESEMANN, DAN KEMP, GRANT MERRILL,
     NORIYUKI MINEZAWA, JONATHAN MULLIN, TAKESHI NAGATA,
     SEAN NEDD, HEATHER NETZLOFF, BOSILJKA NJEGIC, RYAN OLSON, MIKE PAK,
     JIM SHOEMAKER, LYUDMILA SLIPCHENKO, SAROM SOK, JIE SONG,
     TETSUYA TAKETSUGU, SIMON WEBB, SOOHAENG YOO, FEDERICO ZAHARIEV

  ADDITIONAL CODE HAS BEEN PROVIDED BY COLLABORATORS IN OTHER GROUPS:
     IOWA STATE UNIVERSITY:
          JOE IVANIC, LAIMUTIS BYTAUTAS, KLAUS RUEDENBERG
     UNIVERSITY OF TOKYO: KIMIHIKO HIRAO, TAKAHITO NAKAJIMA,
          TAKAO TSUNEDA, MUNEAKI KAMIYA, SUSUMU YANAGISAWA,
          KIYOSHI YAGI, MAHITO CHIBA, SEIKEN TOKURA, NAOAKI KAWAKAMI
     UNIVERSITY OF AARHUS: FRANK JENSEN
     UNIVERSITY OF IOWA: VISVALDAS KAIRYS, HUI LI
     NATIONAL INST. OF STANDARDS AND TECHNOLOGY: WALT STEVENS, DAVID GARMER
     UNIVERSITY OF PISA: BENEDETTA MENNUCCI, JACOPO TOMASI
     UNIVERSITY OF MEMPHIS: HENRY KURTZ, PRAKASHAN KORAMBATH
     UNIVERSITY OF ALBERTA: TOBY ZENG, MARIUSZ KLOBUKOWSKI
     UNIVERSITY OF NEW ENGLAND: MARK SPACKMAN
     MIE UNIVERSITY: HIROAKI UMEDA
     MICHIGAN STATE UNIVERSITY:
          KAROL KOWALSKI, MARTA WLOCH, JEFFREY GOUR, JESSE LUTZ,
          WEI LI, PIOTR PIECUCH
     UNIVERSITY OF SILESIA: MONIKA MUSIAL, STANISLAW KUCHARSKI
     FACULTES UNIVERSITAIRES NOTRE-DAME DE LA PAIX:
          OLIVIER QUINET, BENOIT CHAMPAGNE
     UNIVERSITY OF CALIFORNIA - SANTA BARBARA: BERNARD KIRTMAN
     INSTITUTE FOR MOLECULAR SCIENCE:
          KAZUYA ISHIMURA, MICHIO KATOUDA, AND SHIGERU NAGASE
     UNIVERSITY OF NOTRE DAME: DAN CHIPMAN
     KYUSHU UNIVERSITY:
          HARUYUKI NAKANO,
          FENG LONG GU, JACEK KORCHOWIEC, MARCIN MAKOWSKI, AND YURIKO AOKI,
          HIROTOSHI MORI AND EISAKU MIYOSHI
     PENNSYLVANIA STATE UNIVERSITY:
          TZVETELIN IORDANOV, CHET SWALINA, JONATHAN SKONE,
          SHARON HAMMES-SCHIFFER
     WASEDA UNIVERSITY:
          MASATO KOBAYASHI, TOMOKO AKAMA, TSUGUKI TOUMA,
          TAKESHI YOSHIKAWA, YASUHIRO IKABATA, HIROMI NAKAI
     NANJING UNIVERSITY: SHUHUA LI
     UNIVERSITY OF NEBRASKA:
          PEIFENG SU, DEJUN SI, NANDUN THELLAMUREGE, YALI WANG, HUI LI
     UNIVERSITY OF ZURICH:
          ROBERTO PEVERATI, KIM BALDRIDGE
     N. COPERNICUS UNIVERSITY AND JACKSON STATE UNIVERSITY:
          MARIA BARYSZ


 PARALLEL VERSION RUNNING ON     4 PROCESSORS IN     4 NODES.

 EXECUTION OF GAMESS BEGUN Mon Sep 11 13:33:47 2017

            ECHO OF THE FIRST FEW INPUT CARDS -
 INPUT CARD> $CONTRL  RUNTYP=hessian cctyp=ccsd(t)                                          
 INPUT CARD> ispher=+1                                                                      
 INPUT CARD>! numgrd=.t.                                                                    
 INPUT CARD>! exetyp=check                                                                  
 INPUT CARD> $END                                                                           
 INPUT CARD> $system TIMLIM=9000                                                            
 INPUT CARD> mwords=80 memddi=20 $end                                                       
 INPUT CARD>! $BASIS  GBASIS=N31 NGAUSS=6 ndfunc=1 $END                                     
 INPUT CARD> $BASIS  GBASIS=cct $END                                                        
 INPUT CARD> $force method=fullnum $end                                                     
 INPUT CARD> $scf dirscf=.t. $end                                                           
 INPUT CARD>                                                                                
 INPUT CARD> $DATA                                                                          
 INPUT CARD> C2H4                                                                           
 INPUT CARD> dnh 2                                                                          
 INPUT CARD>                                                                                
 INPUT CARD> CARBON      6.0   0.0000000000   0.0000000000   0.6685834583                   
 INPUT CARD> HYDROGEN    1.0   0.0000000000   0.9240696174   1.2337986515                   
 INPUT CARD> $END                                                                           
 INPUT CARD>                                                                                
   80000000 WORDS OF MEMORY AVAILABLE

     BASIS OPTIONS
     -------------
     GBASIS=CCT          IGAUSS=       0      POLAR=NONE    
     NDFUNC=       0     NFFUNC=       0     DIFFSP=       F
     NPFUNC=       0      DIFFS=       F     BASNAM=        


     RUN TITLE
     ---------
  C2H4                                                                           

 THE POINT GROUP OF THE MOLECULE IS DNH     
 THE ORDER OF THE PRINCIPAL AXIS IS     2

 ATOM      ATOMIC                      COORDINATES (BOHR)
           CHARGE         X                   Y                   Z
 CARBON      6.0     0.0000000000        0.0000000000       -1.2634395361
 CARBON      6.0     0.0000000000        0.0000000000        1.2634395361
 HYDROGEN    1.0     0.0000000000       -1.7462383705        2.3315413754
 HYDROGEN    1.0     0.0000000000        1.7462383705       -2.3315413754
 HYDROGEN    1.0     0.0000000000       -1.7462383705       -2.3315413754
 HYDROGEN    1.0     0.0000000000        1.7462383705        2.3315413754

          INTERNUCLEAR DISTANCES (ANGS.)
          ------------------------------

                1 CARB       2 CARB       3 HYDR       4 HYDR       5 HYDR  

   1 CARB    0.0000000    1.3371669 *  2.1149379 *  1.0832234 *  1.0832234 *
   2 CARB    1.3371669 *  0.0000000    1.0832234 *  2.1149379 *  2.1149379 *
   3 HYDR    2.1149379 *  1.0832234 *  0.0000000    3.0829621    2.4675973 *
   4 HYDR    1.0832234 *  2.1149379 *  3.0829621    0.0000000    1.8481392 *
   5 HYDR    1.0832234 *  2.1149379 *  2.4675973 *  1.8481392 *  0.0000000  
   6 HYDR    2.1149379 *  1.0832234 *  1.8481392 *  2.4675973 *  3.0829621  

                6 HYDR  

   1 CARB    2.1149379 *
   2 CARB    1.0832234 *
   3 HYDR    1.8481392 *
   4 HYDR    2.4675973 *
   5 HYDR    3.0829621  
   6 HYDR    0.0000000  

  * ... LESS THAN  3.000


     ATOMIC BASIS SET
     ----------------
 THE CONTRACTED PRIMITIVE FUNCTIONS HAVE BEEN UNNORMALIZED
 THE CONTRACTED BASIS FUNCTIONS ARE NOW NORMALIZED TO UNITY

  SHELL TYPE  PRIMITIVE        EXPONENT          CONTRACTION COEFFICIENT(S)

 CARBON    

     11   S       1          8236.0000000    0.000542430189
     11   S       2          1235.0000000    0.004196427901
     11   S       3           280.8000000    0.021540914108
     11   S       4            79.2700000    0.083614949614
     11   S       5            25.5900000    0.239871618922
     11   S       6             8.9970000    0.443751820060
     11   S       7             3.3190000    0.353579696469
     11   S       8             0.3643000   -0.009176366076

     12   S       9          8236.0000000   -0.000196392234
     12   S      10          1235.0000000   -0.001525950274
     12   S      11           280.8000000   -0.007890449028
     12   S      12            79.2700000   -0.031514870532
     12   S      13            25.5900000   -0.096910008320
     12   S      14             8.9970000   -0.220541526288
     12   S      15             3.3190000   -0.296069112937
     12   S      16             0.3643000    1.040503432950

     13   S      17             0.9059000    1.000000000000

     14   S      18             0.1285000    1.000000000000

     15   P      19            18.7100000    0.039426387165
     15   P      20             4.1330000    0.244088984924
     15   P      21             1.2000000    0.815492008943

     16   P      22             0.3827000    1.000000000000

     17   P      23             0.1209000    1.000000000000

     18   D      24             1.0970000    1.000000000000

     19   D      25             0.3180000    1.000000000000

     20   F      26             0.7610000    1.000000000000

 HYDROGEN  

     39   S      27            33.8700000    0.025494863235
     39   S      28             5.0950000    0.190362765893
     39   S      29             1.1590000    0.852162022245

     40   S      30             0.3258000    1.000000000000

     41   S      31             0.1027000    1.000000000000

     42   P      32             1.4070000    1.000000000000

     43   P      33             0.3880000    1.000000000000

     44   D      34             1.0570000    1.000000000000

 TOTAL NUMBER OF BASIS SET SHELLS             =   44
 NUMBER OF CARTESIAN GAUSSIAN BASIS FUNCTIONS =  130
 NOTE: THIS RUN WILL RESTRICT THE MO VARIATION SPACE TO SPHERICAL HARMONICS.
 THE NUMBER OF ORBITALS KEPT IN THE VARIATIONAL SPACE WILL BE PRINTED LATER.
 NUMBER OF ELECTRONS                          =   16
 CHARGE OF MOLECULE                           =    0
 SPIN MULTIPLICITY                            =    1
 NUMBER OF OCCUPIED ORBITALS (ALPHA)          =    8
 NUMBER OF OCCUPIED ORBITALS (BETA )          =    8
 TOTAL NUMBER OF ATOMS                        =    6
 THE NUCLEAR REPULSION ENERGY IS       33.3212011668

     $NEO OPTIONS
     ------------
     NUNIQN=       0     BASNUC=DZSNB        NEOSCF=NONE    
     NEOCI =NONE         NUMULT=       2     NUCST =       1
     NAUXNB=       0     VNUCEX=       F     NUCOPT=       T
     NTAUXB=       0     NEOHSS=       F     HSSINI=READH   
     HSSUPD=POWELLUP     DIRNUC=       F     SYMNUC=       F
     QMTOLN= 0.0E+00     USRDEX=       F
     POSNEO=       F     POSPRP=       F
     NEONCI=       F     LOCORB=       0

     $CONTRL OPTIONS
     ---------------
 SCFTYP=RHF          RUNTYP=HESSIAN      EXETYP=RUN     
 MPLEVL=       0     CITYP =NONE         CCTYP =CCSD(T)      VBTYP =NONE    
 DFTTYP=NONE         TDDFT =NONE    
 MULT  =       1     ICHARG=       0     NZVAR =       0     COORD =UNIQUE  
 PP    =NONE         RELWFN=NONE         LOCAL =NONE         NUMGRD=       F
 ISPHER=       1     NOSYM =       0     MAXIT =      30     UNITS =ANGS    
 PLTORB=       F     MOLPLT=       F     AIMPAC=       F     FRIEND=        
 NPRINT=       7     IREST =       0     GEOM  =INPUT   
 NORMF =       0     NORMP =       0     ITOL  =      20     ICUT  =       9
 INTTYP=BEST         GRDTYP=BEST         QMTTOL= 1.0E-06

     $SYSTEM OPTIONS
     ---------------
  REPLICATED MEMORY=    80000000 WORDS (ON EVERY NODE).
 DISTRIBUTED MEMDDI=          20 MILLION WORDS IN AGGREGATE,
 MEMDDI DISTRIBUTED OVER   4 PROCESSORS IS     5000000 WORDS/PROCESSOR.
 TOTAL MEMORY REQUESTED ON EACH PROCESSOR=    85000000 WORDS.
 TIMLIM=        9000.00 MINUTES, OR       6.3 DAYS.
 PARALL= T  BALTYP=  DLB     KDIAG=    0  COREFL= F
 MXSEQ2=     300 MXSEQ3=     150

          ----------------
          PROPERTIES INPUT
          ----------------

     MOMENTS            FIELD           POTENTIAL          DENSITY
 IEMOM =       1   IEFLD =       0   IEPOT =       0   IEDEN =       0
 WHERE =COMASS     WHERE =NUCLEI     WHERE =NUCLEI     WHERE =NUCLEI  
 OUTPUT=BOTH       OUTPUT=BOTH       OUTPUT=BOTH       OUTPUT=BOTH    
 IEMINT=       0   IEFINT=       0                     IEDINT=       0
                                                       MORB  =       0
          EXTRAPOLATION IN EFFECT
          SOSCF IN EFFECT
 ORBITAL PRINTING OPTION: NPREO=     1   130     2     1

     -------------------------------
     INTEGRAL TRANSFORMATION OPTIONS
     -------------------------------
     NWORD  =            0
     CUTOFF = 1.0E-09     MPTRAN =       0
     DIRTRF =       T     AOINTS =DUP     

          ----------------------
          INTEGRAL INPUT OPTIONS
          ----------------------
 NOPK  =       1 NORDER=       0 SCHWRZ=       T

     ------------------------------------------
     THE POINT GROUP IS DNH, NAXIS= 2, ORDER= 8
     ------------------------------------------

 -- VARIATIONAL SPACE WILL BE RESTRICTED TO PURE SPHERICAL HARMONICS ONLY --
 AFTER EXCLUDING CONTAMINANT COMBINATIONS FROM THE CARTESIAN GAUSSIAN BASIS
 SET, THE NUMBER OF SPHERICAL HARMONICS KEPT IN THE VARIATION SPACE IS  116

     DIMENSIONS OF THE SYMMETRY SUBSPACES ARE
 AG  =   23     AU  =    7     B3U =   11     B3G =   17     B1G =    7
 B1U =   23     B2U =   17     B2G =   11

 ..... DONE SETTING UP THE RUN .....
 CPU     0: STEP CPU TIME=     0.02 TOTAL CPU TIME=        0.0 (    0.0 MIN)
 TOTAL WALL CLOCK TIME=        0.0 SECONDS, CPU UTILIZATION IS 100.00%

     ---------------------------------
     HESSIAN MATRIX CONTROL PARAMETERS
     ---------------------------------
     METHOD=FULLNUM    NVIB  =       2   VIBSIZ= 0.01000
     RDHESS=       F   PURIFY=       F   PRTIFC=       F
     VIBANL=       T   DECOMP=       F   PROJCT=       F
     SCLFAC= 1.00000   PRTSCN=       F   NPRT  =       0
     PULCOR=       F   NPUN  =       0   REDOVB=       T
     THERMOCHEMISTRY WILL BE PRINTED FOR    1 TEMPERATURES:
      298.15000

          ********************
          1 ELECTRON INTEGRALS
          ********************
 ...... END OF ONE-ELECTRON INTEGRALS ......
 CPU     0: STEP CPU TIME=     0.00 TOTAL CPU TIME=        0.0 (    0.0 MIN)
 TOTAL WALL CLOCK TIME=        0.0 SECONDS, CPU UTILIZATION IS 100.00%

          -------------
          GUESS OPTIONS
          -------------
          GUESS =HUCKEL            NORB  =       0          NORDER=       0
          MIX   =       F          PRTMO =       F          PUNMO =       F
          TOLZ  = 1.0E-08          TOLE  = 1.0E-05
          SYMDEN=       F          PURIFY=       F

 INITIAL GUESS ORBITALS GENERATED BY HUCKEL   ROUTINE.
 HUCKEL GUESS REQUIRES    126392 WORDS.

 STATISTICS FOR GENERATION OF SYMMETRY ORBITAL -Q- MATRIX
 NUMBER OF CARTESIAN ATOMIC ORBITALS=        130
 NUMBER OF SPHERICAL CONTAMINANTS DROPPED=    14
 NUMBER OF LINEARLY DEPENDENT MOS DROPPED=     0
 TOTAL NUMBER OF MOS IN VARIATION SPACE=     116

 SYMMETRIES FOR INITIAL GUESS ORBITALS FOLLOW.   BOTH SET(S).
     8 ORBITALS ARE OCCUPIED (    2 CORE ORBITALS).
     3=AG       4=B1U      5=B2U      6=AG       7=B3G      8=B3U      9=B2G 
    10=B2U     11=B1U     12=B3G     13=AG      14=AG      15=AG      16=AG  
    17=AG      18=AG  
 ...... END OF INITIAL ORBITAL SELECTION ......
 CPU     0: STEP CPU TIME=     0.01 TOTAL CPU TIME=        0.0 (    0.0 MIN)
 TOTAL WALL CLOCK TIME=        0.0 SECONDS, CPU UTILIZATION IS 100.00%

                    ----------------------
                    AO INTEGRAL TECHNOLOGY
                    ----------------------
     S,P,L SHELL ROTATED AXIS INTEGRALS, REPROGRAMMED BY
        KAZUYA ISHIMURA (IMS) AND JOSE SIERRA (SYNSTAR).
     S,P,D,L SHELL ROTATED AXIS INTEGRALS PROGRAMMED BY
        KAZUYA ISHIMURA (INSTITUTE FOR MOLECULAR SCIENCE).
     S,P,D,F,G SHELL TO TOTAL QUARTET ANGULAR MOMENTUM SUM 5,
        ERIC PROGRAM BY GRAHAM FLETCHER (ELORET AND NASA ADVANCED
        SUPERCOMPUTING DIVISION, AMES RESEARCH CENTER).
     S,P,D,F,G,L SHELL GENERAL RYS QUADRATURE PROGRAMMED BY
        MICHEL DUPUIS (PACIFIC NORTHWEST NATIONAL LABORATORY).

          --------------------
          2 ELECTRON INTEGRALS
          --------------------

 DIRECT SCF METHOD SKIPS INTEGRAL STORAGE ON DISK.
 DIRECT TRANSFORMATION SKIPS AO INTEGRAL STORAGE ON DISK.
  ...... END OF TWO-ELECTRON INTEGRALS .....
 CPU     0: STEP CPU TIME=     0.03 TOTAL CPU TIME=        0.1 (    0.0 MIN)
 TOTAL WALL CLOCK TIME=        0.1 SECONDS, CPU UTILIZATION IS 100.00%

          --------------------------
                 RHF SCF CALCULATION
          --------------------------

     NUCLEAR ENERGY =        33.3212011668
     MAXIT =   30     NPUNCH=    2
     EXTRAP=T  DAMP=F  SHIFT=F  RSTRCT=F  DIIS=F  DEM=F  SOSCF=T
     DENSITY MATRIX CONV=  2.00E-06
     SOSCF WILL OPTIMIZE     864 ORBITAL ROTATIONS, SOGTOL=   0.250
     MEMORY REQUIRED FOR RHF ITERS=    179656 WORDS.

 DIRECT SCF CALCULATION, SCHWRZ=T   FDIFF=T,  DIRTHR=  0.00E+00 NITDIR=10
 SCHWARZ INEQUALITY OVERHEAD:      8515 INTEGRALS, T=        0.00

                                                                                   NONZERO     BLOCKS
 ITER EX DEM     TOTAL ENERGY        E CHANGE  DENSITY CHANGE     ORB. GRAD      INTEGRALS    SKIPPED
   1  0  0      -77.8455833261   -77.8455833261   0.319801790   0.000000000        4618350       1438
          ---------------START SECOND ORDER SCF---------------
   2  1  0      -78.0514160577    -0.2058327316   0.029371055   0.048527447        4618716       1581
   3  2  0      -78.0619821903    -0.0105661326   0.012424476   0.009133619        4581015       2698
   4  3  0      -78.0634761418    -0.0014939515   0.002192692   0.001992548        4565679       3243
   5  4  0      -78.0635224650    -0.0000463232   0.000779426   0.000486387        4526302       4205
   6  5  0      -78.0635252877    -0.0000028228   0.000132777   0.000073116        4481138       5072
   7  6  0      -78.0635253849    -0.0000000971   0.000031555   0.000016417        4410321       6654
   8  7  0      -78.0635253891    -0.0000000042   0.000006189   0.000004567        4348673       8262
   9  8  0      -78.0635253892    -0.0000000001   0.000001791   0.000000804        4189413      12802
  10  9  0      -78.0635253892     0.0000000000   0.000000254   0.000000099        4002722      17030

 RHF HAS CONVERGED, NOW COMPUTING EXACT TOTAL FOCK MATRIX
 FOR USE DURING THE COUPLED CLUSTER CALCULATION THAT FOLLOWS.

          -----------------
          DENSITY CONVERGED
          -----------------
     TIME TO FORM FOCK OPERATORS=       1.3 SECONDS (       0.1 SEC/ITER)
     FOCK TIME ON FIRST ITERATION=       0.1, LAST ITERATION=       0.1
     TIME TO SOLVE SCF EQUATIONS=       0.0 SECONDS (       0.0 SEC/ITER)

 FINAL RHF ENERGY IS      -78.0635253892 AFTER  10 ITERATIONS

          ------------
          EIGENVECTORS
          ------------

                      1          2          3          4          5
                  -11.2307   -11.2291    -1.0312    -0.7920    -0.6417
                     AG         B1U        AG         B1U        B2U 
    1  C  1  S    0.691470   0.692150  -0.015063  -0.006440   0.000000
    2  C  1  S    0.000617   0.001310   0.356925   0.285564   0.000000
    3  C  1  S    0.029380   0.029187   0.072085   0.058385   0.000000
    4  C  1  S    0.002495   0.003923   0.129618   0.185554   0.000000
    5  C  1  X    0.000000   0.000000   0.000000   0.000000   0.000000
    6  C  1  Y    0.000000   0.000000   0.000000   0.000000   0.174073
    7  C  1  Z   -0.000103  -0.000545   0.062232  -0.088532   0.000000
    8  C  1  X    0.000000   0.000000   0.000000   0.000000   0.000000
    9  C  1  Y    0.000000   0.000000   0.000000   0.000000   0.207545
   10  C  1  Z    0.000371   0.003366   0.050327  -0.103636   0.000000
   11  C  1  X    0.000000   0.000000   0.000000   0.000000   0.000000
   12  C  1  Y    0.000000   0.000000   0.000000   0.000000   0.074986
   13  C  1  Z   -0.000230   0.001401   0.005623  -0.020663   0.000000
   14  C  1 XX   -0.000393  -0.000712  -0.011987  -0.007838   0.000000
   15  C  1 YY    0.000219   0.000093  -0.000263   0.008670   0.000000
   16  C  1 ZZ    0.000174   0.000619   0.012250  -0.000832   0.000000
   17  C  1 XY    0.000000   0.000000   0.000000   0.000000   0.000000
   18  C  1 XZ    0.000000   0.000000   0.000000   0.000000   0.000000
   19  C  1 YZ    0.000000   0.000000   0.000000   0.000000  -0.004926
   20  C  1 XX   -0.000017   0.000140  -0.012833  -0.016440   0.000000
   21  C  1 YY    0.000249  -0.001749   0.003835   0.015500   0.000000
   22  C  1 ZZ   -0.000232   0.001609   0.008998   0.000940   0.000000
   23  C  1 XY    0.000000   0.000000   0.000000   0.000000   0.000000
   24  C  1 XZ    0.000000   0.000000   0.000000   0.000000   0.000000
   25  C  1 YZ    0.000000   0.000000   0.000000   0.000000  -0.004283
   26  C  1 XXX   0.000000   0.000000   0.000000   0.000000   0.000000
   27  C  1 YYY   0.000000   0.000000   0.000000   0.000000  -0.002128
   28  C  1 ZZZ   0.000217   0.000731   0.007260   0.003641   0.000000
   29  C  1 XXY   0.000000   0.000000   0.000000   0.000000  -0.002521
   30  C  1 XXZ   0.000113  -0.000155  -0.000651   0.000449   0.000000
   31  C  1 YYX   0.000000   0.000000   0.000000   0.000000   0.000000
   32  C  1 YYZ  -0.000404  -0.000825  -0.009090  -0.005334   0.000000
   33  C  1 ZZX   0.000000   0.000000   0.000000   0.000000   0.000000
   34  C  1 ZZY   0.000000   0.000000   0.000000   0.000000   0.005376
   35  C  1 XYZ   0.000000   0.000000   0.000000   0.000000   0.000000
   36  C  2  S    0.691470  -0.692150  -0.015063   0.006440   0.000000
   37  C  2  S    0.000617  -0.001310   0.356925  -0.285564   0.000000
   38  C  2  S    0.029380  -0.029187   0.072085  -0.058385   0.000000
   39  C  2  S    0.002495  -0.003923   0.129618  -0.185554   0.000000
   40  C  2  X    0.000000   0.000000   0.000000   0.000000   0.000000
   41  C  2  Y    0.000000   0.000000   0.000000   0.000000   0.174073
   42  C  2  Z    0.000103  -0.000545  -0.062232  -0.088532   0.000000
   43  C  2  X    0.000000   0.000000   0.000000   0.000000   0.000000
   44  C  2  Y    0.000000   0.000000   0.000000   0.000000   0.207545
   45  C  2  Z   -0.000371   0.003366  -0.050327  -0.103636   0.000000
   46  C  2  X    0.000000   0.000000   0.000000   0.000000   0.000000
   47  C  2  Y    0.000000   0.000000   0.000000   0.000000   0.074986
   48  C  2  Z    0.000230   0.001401  -0.005623  -0.020663   0.000000
   49  C  2 XX   -0.000393   0.000712  -0.011987   0.007838   0.000000
   50  C  2 YY    0.000219  -0.000093  -0.000263  -0.008670   0.000000
   51  C  2 ZZ    0.000174  -0.000619   0.012250   0.000832   0.000000
   52  C  2 XY    0.000000   0.000000   0.000000   0.000000   0.000000
   53  C  2 XZ    0.000000   0.000000   0.000000   0.000000   0.000000
   54  C  2 YZ    0.000000   0.000000   0.000000   0.000000   0.004926
   55  C  2 XX   -0.000017  -0.000140  -0.012833   0.016440   0.000000
   56  C  2 YY    0.000249   0.001749   0.003835  -0.015500   0.000000
   57  C  2 ZZ   -0.000232  -0.001609   0.008998  -0.000940   0.000000
   58  C  2 XY    0.000000   0.000000   0.000000   0.000000   0.000000
   59  C  2 XZ    0.000000   0.000000   0.000000   0.000000   0.000000
   60  C  2 YZ    0.000000   0.000000   0.000000   0.000000   0.004283
   61  C  2 XXX   0.000000   0.000000   0.000000   0.000000   0.000000
   62  C  2 YYY   0.000000   0.000000   0.000000   0.000000  -0.002128
   63  C  2 ZZZ  -0.000217   0.000731  -0.007260   0.003641   0.000000
   64  C  2 XXY   0.000000   0.000000   0.000000   0.000000  -0.002521
   65  C  2 XXZ  -0.000113  -0.000155   0.000651   0.000449   0.000000
   66  C  2 YYX   0.000000   0.000000   0.000000   0.000000   0.000000
   67  C  2 YYZ   0.000404  -0.000825   0.009090  -0.005334   0.000000
   68  C  2 ZZX   0.000000   0.000000   0.000000   0.000000   0.000000
   69  C  2 ZZY   0.000000   0.000000   0.000000   0.000000   0.005376
   70  C  2 XYZ   0.000000   0.000000   0.000000   0.000000   0.000000
   71  H  3  S    0.000070  -0.000057   0.050130  -0.087727  -0.093677
   72  H  3  S    0.000003  -0.001628   0.038401  -0.106879  -0.145932
   73  H  3  S   -0.000520   0.000071   0.002215  -0.022963  -0.044611
   74  H  3  X    0.000000   0.000000   0.000000   0.000000   0.000000
   75  H  3  Y   -0.000191   0.000206   0.003239  -0.007944  -0.006180
   76  H  3  Z    0.000128  -0.000130  -0.003051   0.003278   0.006810
   77  H  3  X    0.000000   0.000000   0.000000   0.000000   0.000000
   78  H  3  Y    0.000072  -0.000371  -0.004702  -0.005662  -0.007210
   79  H  3  Z    0.000150   0.000596   0.002456  -0.000577   0.009311
   80  H  3 XX    0.000052  -0.000036   0.000047   0.000731   0.001477
   81  H  3 YY   -0.000060   0.000116  -0.000616  -0.001564  -0.000185
   82  H  3 ZZ    0.000008  -0.000080   0.000569   0.000833  -0.001292
   83  H  3 XY    0.000000   0.000000   0.000000   0.000000   0.000000
   84  H  3 XZ    0.000000   0.000000   0.000000   0.000000   0.000000
   85  H  3 YZ    0.000177  -0.000157   0.000301   0.000989   0.002960
   86  H  4  S    0.000070   0.000057   0.050130   0.087727   0.093677
   87  H  4  S    0.000003   0.001628   0.038401   0.106879   0.145932
   88  H  4  S   -0.000520  -0.000071   0.002215   0.022963   0.044611
   89  H  4  X    0.000000   0.000000   0.000000   0.000000   0.000000
   90  H  4  Y    0.000191   0.000206  -0.003239  -0.007944  -0.006180
   91  H  4  Z   -0.000128  -0.000130   0.003051   0.003278   0.006810
   92  H  4  X    0.000000   0.000000   0.000000   0.000000   0.000000
   93  H  4  Y   -0.000072  -0.000371   0.004702  -0.005662  -0.007210
   94  H  4  Z   -0.000150   0.000596  -0.002456  -0.000577   0.009311
   95  H  4 XX    0.000052   0.000036   0.000047  -0.000731  -0.001477
   96  H  4 YY   -0.000060  -0.000116  -0.000616   0.001564   0.000185
   97  H  4 ZZ    0.000008   0.000080   0.000569  -0.000833   0.001292
   98  H  4 XY    0.000000   0.000000   0.000000   0.000000   0.000000
   99  H  4 XZ    0.000000   0.000000   0.000000   0.000000   0.000000
  100  H  4 YZ    0.000177   0.000157   0.000301  -0.000989  -0.002960
  101  H  5  S    0.000070   0.000057   0.050130   0.087727  -0.093677
  102  H  5  S    0.000003   0.001628   0.038401   0.106879  -0.145932
  103  H  5  S   -0.000520  -0.000071   0.002215   0.022963  -0.044611
  104  H  5  X    0.000000   0.000000   0.000000   0.000000   0.000000
  105  H  5  Y   -0.000191  -0.000206   0.003239   0.007944  -0.006180
  106  H  5  Z   -0.000128  -0.000130   0.003051   0.003278  -0.006810
  107  H  5  X    0.000000   0.000000   0.000000   0.000000   0.000000
  108  H  5  Y    0.000072   0.000371  -0.004702   0.005662  -0.007210
  109  H  5  Z   -0.000150   0.000596  -0.002456  -0.000577  -0.009311
  110  H  5 XX    0.000052   0.000036   0.000047  -0.000731   0.001477
  111  H  5 YY   -0.000060  -0.000116  -0.000616   0.001564  -0.000185
  112  H  5 ZZ    0.000008   0.000080   0.000569  -0.000833  -0.001292
  113  H  5 XY    0.000000   0.000000   0.000000   0.000000   0.000000
  114  H  5 XZ    0.000000   0.000000   0.000000   0.000000   0.000000
  115  H  5 YZ   -0.000177  -0.000157  -0.000301   0.000989  -0.002960
  116  H  6  S    0.000070  -0.000057   0.050130  -0.087727   0.093677
  117  H  6  S    0.000003  -0.001628   0.038401  -0.106879   0.145932
  118  H  6  S   -0.000520   0.000071   0.002215  -0.022963   0.044611
  119  H  6  X    0.000000   0.000000   0.000000   0.000000   0.000000
  120  H  6  Y    0.000191  -0.000206  -0.003239   0.007944  -0.006180
  121  H  6  Z    0.000128  -0.000130  -0.003051   0.003278  -0.006810
  122  H  6  X    0.000000   0.000000   0.000000   0.000000   0.000000
  123  H  6  Y   -0.000072   0.000371   0.004702   0.005662  -0.007210
  124  H  6  Z    0.000150   0.000596   0.002456  -0.000577  -0.009311
  125  H  6 XX    0.000052  -0.000036   0.000047   0.000731  -0.001477
  126  H  6 YY   -0.000060   0.000116  -0.000616  -0.001564   0.000185
  127  H  6 ZZ    0.000008  -0.000080   0.000569   0.000833   0.001292
  128  H  6 XY    0.000000   0.000000   0.000000   0.000000   0.000000
  129  H  6 XZ    0.000000   0.000000   0.000000   0.000000   0.000000
  130  H  6 YZ   -0.000177   0.000157  -0.000301  -0.000989   0.002960

                      6          7          8          9         10
                   -0.5857    -0.5070    -0.3753     0.1510     0.1590
                     AG         B3G        B3U        B2G        AG  
    1  C  1  S    0.000109   0.000000   0.000000   0.000000   0.010172
    2  C  1  S    0.028828   0.000000   0.000000   0.000000   0.146192
    3  C  1  S    0.004904   0.000000   0.000000   0.000000   0.028403
    4  C  1  S   -0.016126   0.000000   0.000000   0.000000   2.005609
    5  C  1  X    0.000000   0.000000   0.203076   0.186286   0.000000
    6  C  1  Y    0.000000   0.165189   0.000000   0.000000   0.000000
    7  C  1  Z    0.227050   0.000000   0.000000   0.000000  -0.061657
    8  C  1  X    0.000000   0.000000   0.276788   0.212235   0.000000
    9  C  1  Y    0.000000   0.209179   0.000000   0.000000   0.000000
   10  C  1  Z    0.263479   0.000000   0.000000   0.000000  -0.211424
   11  C  1  X    0.000000   0.000000   0.220620   0.829103   0.000000
   12  C  1  Y    0.000000   0.126403   0.000000   0.000000   0.000000
   13  C  1  Z    0.099554   0.000000   0.000000   0.000000  -0.640724
   14  C  1 XX   -0.001218   0.000000   0.000000   0.000000  -0.001268
   15  C  1 YY   -0.014707   0.000000   0.000000   0.000000   0.000528
   16  C  1 ZZ    0.015925   0.000000   0.000000   0.000000   0.000741
   17  C  1 XY    0.000000   0.000000   0.000000   0.000000   0.000000
   18  C  1 XZ    0.000000   0.000000   0.014033  -0.016761   0.000000
   19  C  1 YZ    0.000000  -0.020501   0.000000   0.000000   0.000000
   20  C  1 XX    0.001439   0.000000   0.000000   0.000000  -0.093970
   21  C  1 YY   -0.014409   0.000000   0.000000   0.000000   0.075779
   22  C  1 ZZ    0.012970   0.000000   0.000000   0.000000   0.018191
   23  C  1 XY    0.000000   0.000000   0.000000   0.000000   0.000000
   24  C  1 XZ    0.000000   0.000000   0.027456   0.003944   0.000000
   25  C  1 YZ    0.000000  -0.036008   0.000000   0.000000   0.000000
   26  C  1 XXX   0.000000   0.000000  -0.005456  -0.002656   0.000000
   27  C  1 YYY   0.000000   0.003314   0.000000   0.000000   0.000000
   28  C  1 ZZZ   0.005823   0.000000   0.000000   0.000000   0.008340
   29  C  1 XXY   0.000000  -0.002736   0.000000   0.000000   0.000000
   30  C  1 XXZ  -0.004592   0.000000   0.000000   0.000000   0.006920
   31  C  1 YYX   0.000000   0.000000  -0.000402   0.001009   0.000000
   32  C  1 YYZ  -0.003220   0.000000   0.000000   0.000000  -0.018110
   33  C  1 ZZX   0.000000   0.000000   0.007722   0.002555   0.000000
   34  C  1 ZZY   0.000000  -0.001710   0.000000   0.000000   0.000000
   35  C  1 XYZ   0.000000   0.000000   0.000000   0.000000   0.000000
   36  C  2  S    0.000109   0.000000   0.000000   0.000000   0.010172
   37  C  2  S    0.028828   0.000000   0.000000   0.000000   0.146192
   38  C  2  S    0.004904   0.000000   0.000000   0.000000   0.028403
   39  C  2  S   -0.016126   0.000000   0.000000   0.000000   2.005609
   40  C  2  X    0.000000   0.000000   0.203076  -0.186286   0.000000
   41  C  2  Y    0.000000  -0.165189   0.000000   0.000000   0.000000
   42  C  2  Z   -0.227050   0.000000   0.000000   0.000000   0.061657
   43  C  2  X    0.000000   0.000000   0.276788  -0.212235   0.000000
   44  C  2  Y    0.000000  -0.209179   0.000000   0.000000   0.000000
   45  C  2  Z   -0.263479   0.000000   0.000000   0.000000   0.211424
   46  C  2  X    0.000000   0.000000   0.220620  -0.829103   0.000000
   47  C  2  Y    0.000000  -0.126403   0.000000   0.000000   0.000000
   48  C  2  Z   -0.099554   0.000000   0.000000   0.000000   0.640724
   49  C  2 XX   -0.001218   0.000000   0.000000   0.000000  -0.001268
   50  C  2 YY   -0.014707   0.000000   0.000000   0.000000   0.000528
   51  C  2 ZZ    0.015925   0.000000   0.000000   0.000000   0.000741
   52  C  2 XY    0.000000   0.000000   0.000000   0.000000   0.000000
   53  C  2 XZ    0.000000   0.000000  -0.014033  -0.016761   0.000000
   54  C  2 YZ    0.000000  -0.020501   0.000000   0.000000   0.000000
   55  C  2 XX    0.001439   0.000000   0.000000   0.000000  -0.093970
   56  C  2 YY   -0.014409   0.000000   0.000000   0.000000   0.075779
   57  C  2 ZZ    0.012970   0.000000   0.000000   0.000000   0.018191
   58  C  2 XY    0.000000   0.000000   0.000000   0.000000   0.000000
   59  C  2 XZ    0.000000   0.000000  -0.027456   0.003944   0.000000
   60  C  2 YZ    0.000000  -0.036008   0.000000   0.000000   0.000000
   61  C  2 XXX   0.000000   0.000000  -0.005456   0.002656   0.000000
   62  C  2 YYY   0.000000  -0.003314   0.000000   0.000000   0.000000
   63  C  2 ZZZ  -0.005823   0.000000   0.000000   0.000000  -0.008340
   64  C  2 XXY   0.000000   0.002736   0.000000   0.000000   0.000000
   65  C  2 XXZ   0.004592   0.000000   0.000000   0.000000  -0.006920
   66  C  2 YYX   0.000000   0.000000  -0.000402  -0.001009   0.000000
   67  C  2 YYZ   0.003220   0.000000   0.000000   0.000000   0.018110
   68  C  2 ZZX   0.000000   0.000000   0.007722  -0.002555   0.000000
   69  C  2 ZZY   0.000000   0.001710   0.000000   0.000000   0.000000
   70  C  2 XYZ   0.000000   0.000000   0.000000   0.000000   0.000000
   71  H  3  S   -0.075405   0.112852   0.000000   0.000000  -0.000674
   72  H  3  S   -0.118689   0.165507   0.000000   0.000000  -0.181382
   73  H  3  S   -0.045275   0.081023   0.000000   0.000000  -1.185024
   74  H  3  X    0.000000   0.000000   0.005072  -0.009346   0.000000
   75  H  3  Y   -0.007853   0.006777   0.000000   0.000000   0.012989
   76  H  3  Z    0.000798  -0.005366   0.000000   0.000000  -0.001352
   77  H  3  X    0.000000   0.000000   0.013381  -0.017031   0.000000
   78  H  3  Y   -0.011245   0.002053   0.000000   0.000000  -0.135119
   79  H  3  Z   -0.002136  -0.004731   0.000000   0.000000   0.064951
   80  H  3 XX    0.000763  -0.000804   0.000000   0.000000   0.006655
   81  H  3 YY   -0.002583   0.001086   0.000000   0.000000  -0.006653
   82  H  3 ZZ    0.001820  -0.000282   0.000000   0.000000  -0.000003
   83  H  3 XY    0.000000   0.000000   0.001628  -0.004093   0.000000
   84  H  3 XZ    0.000000   0.000000  -0.001601   0.000855   0.000000
   85  H  3 YZ    0.001010  -0.001584   0.000000   0.000000   0.006367
   86  H  4  S   -0.075405   0.112852   0.000000   0.000000  -0.000674
   87  H  4  S   -0.118689   0.165507   0.000000   0.000000  -0.181382
   88  H  4  S   -0.045275   0.081023   0.000000   0.000000  -1.185024
   89  H  4  X    0.000000   0.000000   0.005072   0.009346   0.000000
   90  H  4  Y    0.007853  -0.006777   0.000000   0.000000  -0.012989
   91  H  4  Z   -0.000798   0.005366   0.000000   0.000000   0.001352
   92  H  4  X    0.000000   0.000000   0.013381   0.017031   0.000000
   93  H  4  Y    0.011245  -0.002053   0.000000   0.000000   0.135119
   94  H  4  Z    0.002136   0.004731   0.000000   0.000000  -0.064951
   95  H  4 XX    0.000763  -0.000804   0.000000   0.000000   0.006655
   96  H  4 YY   -0.002583   0.001086   0.000000   0.000000  -0.006653
   97  H  4 ZZ    0.001820  -0.000282   0.000000   0.000000  -0.000003
   98  H  4 XY    0.000000   0.000000  -0.001628  -0.004093   0.000000
   99  H  4 XZ    0.000000   0.000000   0.001601   0.000855   0.000000
  100  H  4 YZ    0.001010  -0.001584   0.000000   0.000000   0.006367
  101  H  5  S   -0.075405  -0.112852   0.000000   0.000000  -0.000674
  102  H  5  S   -0.118689  -0.165507   0.000000   0.000000  -0.181382
  103  H  5  S   -0.045275  -0.081023   0.000000   0.000000  -1.185024
  104  H  5  X    0.000000   0.000000   0.005072   0.009346   0.000000
  105  H  5  Y   -0.007853  -0.006777   0.000000   0.000000   0.012989
  106  H  5  Z   -0.000798  -0.005366   0.000000   0.000000   0.001352
  107  H  5  X    0.000000   0.000000   0.013381   0.017031   0.000000
  108  H  5  Y   -0.011245  -0.002053   0.000000   0.000000  -0.135119
  109  H  5  Z    0.002136  -0.004731   0.000000   0.000000  -0.064951
  110  H  5 XX    0.000763   0.000804   0.000000   0.000000   0.006655
  111  H  5 YY   -0.002583  -0.001086   0.000000   0.000000  -0.006653
  112  H  5 ZZ    0.001820   0.000282   0.000000   0.000000  -0.000003
  113  H  5 XY    0.000000   0.000000   0.001628   0.004093   0.000000
  114  H  5 XZ    0.000000   0.000000   0.001601   0.000855   0.000000
  115  H  5 YZ   -0.001010  -0.001584   0.000000   0.000000  -0.006367
  116  H  6  S   -0.075405  -0.112852   0.000000   0.000000  -0.000674
  117  H  6  S   -0.118689  -0.165507   0.000000   0.000000  -0.181382
  118  H  6  S   -0.045275  -0.081023   0.000000   0.000000  -1.185024
  119  H  6  X    0.000000   0.000000   0.005072  -0.009346   0.000000
  120  H  6  Y    0.007853   0.006777   0.000000   0.000000  -0.012989
  121  H  6  Z    0.000798   0.005366   0.000000   0.000000  -0.001352
  122  H  6  X    0.000000   0.000000   0.013381  -0.017031   0.000000
  123  H  6  Y    0.011245   0.002053   0.000000   0.000000   0.135119
  124  H  6  Z   -0.002136   0.004731   0.000000   0.000000   0.064951
  125  H  6 XX    0.000763   0.000804   0.000000   0.000000   0.006655
  126  H  6 YY   -0.002583  -0.001086   0.000000   0.000000  -0.006653
  127  H  6 ZZ    0.001820   0.000282   0.000000   0.000000  -0.000003
  128  H  6 XY    0.000000   0.000000  -0.001628   0.004093   0.000000
  129  H  6 XZ    0.000000   0.000000  -0.001601   0.000855   0.000000
  130  H  6 YZ   -0.001010  -0.001584   0.000000   0.000000  -0.006367

                     11         12         13         14         15
                    0.1869     0.1909     0.2410     0.3673     0.3741
                     B1U        B2U        B3G        B1U        AG  
    1  C  1  S    0.018407   0.000000   0.000000   0.011413  -0.055482
    2  C  1  S    0.190772   0.000000   0.000000   0.063243  -0.143377
    3  C  1  S    0.026293   0.000000   0.000000  -0.009748  -0.052333
    4  C  1  S    3.432365   0.000000   0.000000   6.048720  -0.860720
    5  C  1  X    0.000000   0.000000   0.000000   0.000000   0.000000
    6  C  1  Y    0.000000   0.103443   0.088101   0.000000   0.000000
    7  C  1  Z   -0.037385   0.000000   0.000000   0.024461  -0.068164
    8  C  1  X    0.000000   0.000000   0.000000   0.000000   0.000000
    9  C  1  Y    0.000000   0.238918   0.304118   0.000000   0.000000
   10  C  1  Z   -0.092187   0.000000   0.000000   0.631061  -0.356640
   11  C  1  X    0.000000   0.000000   0.000000   0.000000   0.000000
   12  C  1  Y    0.000000   0.980330   2.721218   0.000000   0.000000
   13  C  1  Z    0.094161   0.000000   0.000000   5.044482   1.392550
   14  C  1 XX    0.003647   0.000000   0.000000   0.002663   0.006787
   15  C  1 YY    0.001469   0.000000   0.000000   0.008391   0.036056
   16  C  1 ZZ   -0.005116   0.000000   0.000000  -0.011054  -0.042843
   17  C  1 XY    0.000000   0.000000   0.000000   0.000000   0.000000
   18  C  1 XZ    0.000000   0.000000   0.000000   0.000000   0.000000
   19  C  1 YZ    0.000000   0.008798  -0.020624   0.000000   0.000000
   20  C  1 XX   -0.166400   0.000000   0.000000  -0.133695  -0.077734
   21  C  1 YY    0.130190   0.000000   0.000000  -0.250556  -0.114431
   22  C  1 ZZ    0.036210   0.000000   0.000000   0.384251   0.192165
   23  C  1 XY    0.000000   0.000000   0.000000   0.000000   0.000000
   24  C  1 XZ    0.000000   0.000000   0.000000   0.000000   0.000000
   25  C  1 YZ    0.000000  -0.061821  -0.056361   0.000000   0.000000
   26  C  1 XXX   0.000000   0.000000   0.000000   0.000000   0.000000
   27  C  1 YYY   0.000000   0.003496   0.012257   0.000000   0.000000
   28  C  1 ZZZ   0.009236   0.000000   0.000000   0.030113   0.020261
   29  C  1 XXY   0.000000  -0.006310  -0.017031   0.000000   0.000000
   30  C  1 XXZ  -0.001601   0.000000   0.000000  -0.031319  -0.022561
   31  C  1 YYX   0.000000   0.000000   0.000000   0.000000   0.000000
   32  C  1 YYZ  -0.010790   0.000000   0.000000  -0.009082  -0.004623
   33  C  1 ZZX   0.000000   0.000000   0.000000   0.000000   0.000000
   34  C  1 ZZY   0.000000   0.001620   0.000586   0.000000   0.000000
   35  C  1 XYZ   0.000000   0.000000   0.000000   0.000000   0.000000
   36  C  2  S   -0.018407   0.000000   0.000000  -0.011413  -0.055482
   37  C  2  S   -0.190772   0.000000   0.000000  -0.063243  -0.143377
   38  C  2  S   -0.026293   0.000000   0.000000   0.009748  -0.052333
   39  C  2  S   -3.432365   0.000000   0.000000  -6.048720  -0.860720
   40  C  2  X    0.000000   0.000000   0.000000   0.000000   0.000000
   41  C  2  Y    0.000000   0.103443  -0.088101   0.000000   0.000000
   42  C  2  Z   -0.037385   0.000000   0.000000   0.024461   0.068164
   43  C  2  X    0.000000   0.000000   0.000000   0.000000   0.000000
   44  C  2  Y    0.000000   0.238918  -0.304118   0.000000   0.000000
   45  C  2  Z   -0.092187   0.000000   0.000000   0.631061   0.356640
   46  C  2  X    0.000000   0.000000   0.000000   0.000000   0.000000
   47  C  2  Y    0.000000   0.980330  -2.721218   0.000000   0.000000
   48  C  2  Z    0.094161   0.000000   0.000000   5.044482  -1.392550
   49  C  2 XX   -0.003647   0.000000   0.000000  -0.002663   0.006787
   50  C  2 YY   -0.001469   0.000000   0.000000  -0.008391   0.036056
   51  C  2 ZZ    0.005116   0.000000   0.000000   0.011054  -0.042843
   52  C  2 XY    0.000000   0.000000   0.000000   0.000000   0.000000
   53  C  2 XZ    0.000000   0.000000   0.000000   0.000000   0.000000
   54  C  2 YZ    0.000000  -0.008798  -0.020624   0.000000   0.000000
   55  C  2 XX    0.166400   0.000000   0.000000   0.133695  -0.077734
   56  C  2 YY   -0.130190   0.000000   0.000000   0.250556  -0.114431
   57  C  2 ZZ   -0.036210   0.000000   0.000000  -0.384251   0.192165
   58  C  2 XY    0.000000   0.000000   0.000000   0.000000   0.000000
   59  C  2 XZ    0.000000   0.000000   0.000000   0.000000   0.000000
   60  C  2 YZ    0.000000   0.061821  -0.056361   0.000000   0.000000
   61  C  2 XXX   0.000000   0.000000   0.000000   0.000000   0.000000
   62  C  2 YYY   0.000000   0.003496  -0.012257   0.000000   0.000000
   63  C  2 ZZZ   0.009236   0.000000   0.000000   0.030113  -0.020261
   64  C  2 XXY   0.000000  -0.006310   0.017031   0.000000   0.000000
   65  C  2 XXZ  -0.001601   0.000000   0.000000  -0.031319   0.022561
   66  C  2 YYX   0.000000   0.000000   0.000000   0.000000   0.000000
   67  C  2 YYZ  -0.010790   0.000000   0.000000  -0.009082   0.004623
   68  C  2 ZZX   0.000000   0.000000   0.000000   0.000000   0.000000
   69  C  2 ZZY   0.000000   0.001620  -0.000586   0.000000   0.000000
   70  C  2 XYZ   0.000000   0.000000   0.000000   0.000000   0.000000
   71  H  3  S    0.003341   0.013082   0.025734  -0.026183   0.018039
   72  H  3  S    0.249421   0.073158  -0.245134  -0.294117   0.371707
   73  H  3  S    1.356216   1.557514  -2.460134  -1.303298   0.139408
   74  H  3  X    0.000000   0.000000   0.000000   0.000000   0.000000
   75  H  3  Y   -0.013177  -0.010006   0.009600   0.006331   0.000466
   76  H  3  Z    0.008126   0.012977  -0.012732   0.017317  -0.009461
   77  H  3  X    0.000000   0.000000   0.000000   0.000000   0.000000
   78  H  3  Y    0.145023   0.084730  -0.121942  -0.078987  -0.064755
   79  H  3  Z   -0.097014  -0.077663   0.130774   0.023398  -0.032978
   80  H  3 XX   -0.006001  -0.002615   0.005259   0.003452   0.006652
   81  H  3 YY    0.003940   0.002943  -0.003492  -0.003913  -0.012660
   82  H  3 ZZ    0.002060  -0.000328  -0.001767   0.000461   0.006008
   83  H  3 XY    0.000000   0.000000   0.000000   0.000000   0.000000
   84  H  3 XZ    0.000000   0.000000   0.000000   0.000000   0.000000
   85  H  3 YZ   -0.005154  -0.004077   0.011502   0.010097  -0.000928
   86  H  4  S   -0.003341  -0.013082   0.025734   0.026183   0.018039
   87  H  4  S   -0.249421  -0.073158  -0.245134   0.294117   0.371707
   88  H  4  S   -1.356216  -1.557514  -2.460134   1.303298   0.139408
   89  H  4  X    0.000000   0.000000   0.000000   0.000000   0.000000
   90  H  4  Y   -0.013177  -0.010006  -0.009600   0.006331  -0.000466
   91  H  4  Z    0.008126   0.012977   0.012732   0.017317   0.009461
   92  H  4  X    0.000000   0.000000   0.000000   0.000000   0.000000
   93  H  4  Y    0.145023   0.084730   0.121942  -0.078987   0.064755
   94  H  4  Z   -0.097014  -0.077663  -0.130774   0.023398   0.032978
   95  H  4 XX    0.006001   0.002615   0.005259  -0.003452   0.006652
   96  H  4 YY   -0.003940  -0.002943  -0.003492   0.003913  -0.012660
   97  H  4 ZZ   -0.002060   0.000328  -0.001767  -0.000461   0.006008
   98  H  4 XY    0.000000   0.000000   0.000000   0.000000   0.000000
   99  H  4 XZ    0.000000   0.000000   0.000000   0.000000   0.000000
  100  H  4 YZ    0.005154   0.004077   0.011502  -0.010097  -0.000928
  101  H  5  S   -0.003341   0.013082  -0.025734   0.026183   0.018039
  102  H  5  S   -0.249421   0.073158   0.245134   0.294117   0.371707
  103  H  5  S   -1.356216   1.557514   2.460134   1.303298   0.139408
  104  H  5  X    0.000000   0.000000   0.000000   0.000000   0.000000
  105  H  5  Y    0.013177  -0.010006  -0.009600  -0.006331   0.000466
  106  H  5  Z    0.008126  -0.012977  -0.012732   0.017317   0.009461
  107  H  5  X    0.000000   0.000000   0.000000   0.000000   0.000000
  108  H  5  Y   -0.145023   0.084730   0.121942   0.078987  -0.064755
  109  H  5  Z   -0.097014   0.077663   0.130774   0.023398   0.032978
  110  H  5 XX    0.006001  -0.002615  -0.005259  -0.003452   0.006652
  111  H  5 YY   -0.003940   0.002943   0.003492   0.003913  -0.012660
  112  H  5 ZZ   -0.002060  -0.000328   0.001767  -0.000461   0.006008
  113  H  5 XY    0.000000   0.000000   0.000000   0.000000   0.000000
  114  H  5 XZ    0.000000   0.000000   0.000000   0.000000   0.000000
  115  H  5 YZ   -0.005154   0.004077   0.011502   0.010097   0.000928
  116  H  6  S    0.003341  -0.013082  -0.025734  -0.026183   0.018039
  117  H  6  S    0.249421  -0.073158   0.245134  -0.294117   0.371707
  118  H  6  S    1.356216  -1.557514   2.460134  -1.303298   0.139408
  119  H  6  X    0.000000   0.000000   0.000000   0.000000   0.000000
  120  H  6  Y    0.013177  -0.010006   0.009600  -0.006331  -0.000466
  121  H  6  Z    0.008126  -0.012977   0.012732   0.017317  -0.009461
  122  H  6  X    0.000000   0.000000   0.000000   0.000000   0.000000
  123  H  6  Y   -0.145023   0.084730  -0.121942   0.078987   0.064755
  124  H  6  Z   -0.097014   0.077663  -0.130774   0.023398  -0.032978
  125  H  6 XX   -0.006001   0.002615  -0.005259   0.003452   0.006652
  126  H  6 YY    0.003940  -0.002943   0.003492  -0.003913  -0.012660
  127  H  6 ZZ    0.002060   0.000328   0.001767   0.000461   0.006008
  128  H  6 XY    0.000000   0.000000   0.000000   0.000000   0.000000
  129  H  6 XZ    0.000000   0.000000   0.000000   0.000000   0.000000
  130  H  6 YZ    0.005154  -0.004077   0.011502  -0.010097   0.000928

                     16         17         18         19         20
                    0.4401     0.4473     0.4869     0.5651     0.5885
                     B2U        B3U        AG         B2G        B1U 
    1  C  1  S    0.000000   0.000000  -0.029769   0.000000   0.002988
    2  C  1  S    0.000000   0.000000  -0.120934   0.000000   0.134001
    3  C  1  S    0.000000   0.000000  -0.064739   0.000000  -0.075115
    4  C  1  S    0.000000   0.000000   2.033023   0.000000   8.075390
    5  C  1  X    0.000000  -0.137083   0.000000  -0.203946   0.000000
    6  C  1  Y   -0.008843   0.000000   0.000000   0.000000   0.000000
    7  C  1  Z    0.000000   0.000000  -0.067608   0.000000   0.071377
    8  C  1  X    0.000000  -0.545217   0.000000  -0.591682   0.000000
    9  C  1  Y    0.400517   0.000000   0.000000   0.000000   0.000000
   10  C  1  Z    0.000000   0.000000  -0.599110   0.000000  -0.462112
   11  C  1  X    0.000000   0.724483   0.000000   1.541889   0.000000
   12  C  1  Y    1.159548   0.000000   0.000000   0.000000   0.000000
   13  C  1  Z    0.000000   0.000000  -0.031974   0.000000   2.247108
   14  C  1 XX    0.000000   0.000000  -0.004161   0.000000   0.015533
   15  C  1 YY    0.000000   0.000000   0.030635   0.000000  -0.001345
   16  C  1 ZZ    0.000000   0.000000  -0.026474   0.000000  -0.014188
   17  C  1 XY    0.000000   0.000000   0.000000   0.000000   0.000000
   18  C  1 XZ    0.000000  -0.003745   0.000000  -0.008031   0.000000
   19  C  1 YZ    0.026430   0.000000   0.000000   0.000000   0.000000
   20  C  1 XX    0.000000   0.000000  -0.061809   0.000000  -0.421198
   21  C  1 YY    0.000000   0.000000   0.081668   0.000000   0.633250
   22  C  1 ZZ    0.000000   0.000000  -0.019859   0.000000  -0.212052
   23  C  1 XY    0.000000   0.000000   0.000000   0.000000   0.000000
   24  C  1 XZ    0.000000  -0.111000   0.000000   0.261441   0.000000
   25  C  1 YZ   -0.278220   0.000000   0.000000   0.000000   0.000000
   26  C  1 XXX   0.000000  -0.006984   0.000000  -0.020170   0.000000
   27  C  1 YYY   0.009050   0.000000   0.000000   0.000000   0.000000
   28  C  1 ZZZ   0.000000   0.000000   0.042749   0.000000   0.049184
   29  C  1 XXY  -0.033881   0.000000   0.000000   0.000000   0.000000
   30  C  1 XXZ   0.000000   0.000000   0.015111   0.000000   0.020158
   31  C  1 YYX   0.000000   0.003925   0.000000  -0.006681   0.000000
   32  C  1 YYZ   0.000000   0.000000  -0.072465   0.000000  -0.086145
   33  C  1 ZZX   0.000000   0.005444   0.000000   0.033742   0.000000
   34  C  1 ZZY   0.021740   0.000000   0.000000   0.000000   0.000000
   35  C  1 XYZ   0.000000   0.000000   0.000000   0.000000   0.000000
   36  C  2  S    0.000000   0.000000  -0.029769   0.000000  -0.002988
   37  C  2  S    0.000000   0.000000  -0.120934   0.000000  -0.134001
   38  C  2  S    0.000000   0.000000  -0.064739   0.000000   0.075115
   39  C  2  S    0.000000   0.000000   2.033023   0.000000  -8.075390
   40  C  2  X    0.000000  -0.137083   0.000000   0.203946   0.000000
   41  C  2  Y   -0.008843   0.000000   0.000000   0.000000   0.000000
   42  C  2  Z    0.000000   0.000000   0.067608   0.000000   0.071377
   43  C  2  X    0.000000  -0.545217   0.000000   0.591682   0.000000
   44  C  2  Y    0.400517   0.000000   0.000000   0.000000   0.000000
   45  C  2  Z    0.000000   0.000000   0.599110   0.000000  -0.462112
   46  C  2  X    0.000000   0.724483   0.000000  -1.541889   0.000000
   47  C  2  Y    1.159548   0.000000   0.000000   0.000000   0.000000
   48  C  2  Z    0.000000   0.000000   0.031974   0.000000   2.247108
   49  C  2 XX    0.000000   0.000000  -0.004161   0.000000  -0.015533
   50  C  2 YY    0.000000   0.000000   0.030635   0.000000   0.001345
   51  C  2 ZZ    0.000000   0.000000  -0.026474   0.000000   0.014188
   52  C  2 XY    0.000000   0.000000   0.000000   0.000000   0.000000
   53  C  2 XZ    0.000000   0.003745   0.000000  -0.008031   0.000000
   54  C  2 YZ   -0.026430   0.000000   0.000000   0.000000   0.000000
   55  C  2 XX    0.000000   0.000000  -0.061809   0.000000   0.421198
   56  C  2 YY    0.000000   0.000000   0.081668   0.000000  -0.633250
   57  C  2 ZZ    0.000000   0.000000  -0.019859   0.000000   0.212052
   58  C  2 XY    0.000000   0.000000   0.000000   0.000000   0.000000
   59  C  2 XZ    0.000000   0.111000   0.000000   0.261441   0.000000
   60  C  2 YZ    0.278220   0.000000   0.000000   0.000000   0.000000
   61  C  2 XXX   0.000000  -0.006984   0.000000   0.020170   0.000000
   62  C  2 YYY   0.009050   0.000000   0.000000   0.000000   0.000000
   63  C  2 ZZZ   0.000000   0.000000  -0.042749   0.000000   0.049184
   64  C  2 XXY  -0.033881   0.000000   0.000000   0.000000   0.000000
   65  C  2 XXZ   0.000000   0.000000  -0.015111   0.000000   0.020158
   66  C  2 YYX   0.000000   0.003925   0.000000   0.006681   0.000000
   67  C  2 YYZ   0.000000   0.000000   0.072465   0.000000  -0.086145
   68  C  2 ZZX   0.000000   0.005444   0.000000  -0.033742   0.000000
   69  C  2 ZZY   0.021740   0.000000   0.000000   0.000000   0.000000
   70  C  2 XYZ   0.000000   0.000000   0.000000   0.000000   0.000000
   71  H  3  S    0.059101   0.000000  -0.024380   0.000000   0.035792
   72  H  3  S    1.099449   0.000000  -1.032815   0.000000   1.900530
   73  H  3  S    0.317604   0.000000  -0.318949   0.000000  -0.147418
   74  H  3  X    0.000000   0.006341   0.000000  -0.009046   0.000000
   75  H  3  Y    0.018990   0.000000  -0.018380   0.000000   0.032051
   76  H  3  Z   -0.011787   0.000000   0.004603   0.000000  -0.013613
   77  H  3  X    0.000000  -0.048333   0.000000   0.071591   0.000000
   78  H  3  Y    0.185929   0.000000  -0.228463   0.000000   0.258385
   79  H  3  Z   -0.009371   0.000000   0.165297   0.000000  -0.310440
   80  H  3 XX   -0.004519   0.000000   0.023746   0.000000  -0.022271
   81  H  3 YY    0.013193   0.000000  -0.025374   0.000000   0.013728
   82  H  3 ZZ   -0.008674   0.000000   0.001628   0.000000   0.008543
   83  H  3 XY    0.000000  -0.001738   0.000000  -0.005438   0.000000
   84  H  3 XZ    0.000000  -0.000507   0.000000  -0.002680   0.000000
   85  H  3 YZ   -0.012828   0.000000   0.026315   0.000000  -0.027247
   86  H  4  S   -0.059101   0.000000  -0.024380   0.000000  -0.035792
   87  H  4  S   -1.099449   0.000000  -1.032815   0.000000  -1.900530
   88  H  4  S   -0.317604   0.000000  -0.318949   0.000000   0.147418
   89  H  4  X    0.000000   0.006341   0.000000   0.009046   0.000000
   90  H  4  Y    0.018990   0.000000   0.018380   0.000000   0.032051
   91  H  4  Z   -0.011787   0.000000  -0.004603   0.000000  -0.013613
   92  H  4  X    0.000000  -0.048333   0.000000  -0.071591   0.000000
   93  H  4  Y    0.185929   0.000000   0.228463   0.000000   0.258385
   94  H  4  Z   -0.009371   0.000000  -0.165297   0.000000  -0.310440
   95  H  4 XX    0.004519   0.000000   0.023746   0.000000   0.022271
   96  H  4 YY   -0.013193   0.000000  -0.025374   0.000000  -0.013728
   97  H  4 ZZ    0.008674   0.000000   0.001628   0.000000  -0.008543
   98  H  4 XY    0.000000   0.001738   0.000000  -0.005438   0.000000
   99  H  4 XZ    0.000000   0.000507   0.000000  -0.002680   0.000000
  100  H  4 YZ    0.012828   0.000000   0.026315   0.000000   0.027247
  101  H  5  S    0.059101   0.000000  -0.024380   0.000000  -0.035792
  102  H  5  S    1.099449   0.000000  -1.032815   0.000000  -1.900530
  103  H  5  S    0.317604   0.000000  -0.318949   0.000000   0.147418
  104  H  5  X    0.000000   0.006341   0.000000   0.009046   0.000000
  105  H  5  Y    0.018990   0.000000  -0.018380   0.000000  -0.032051
  106  H  5  Z    0.011787   0.000000  -0.004603   0.000000  -0.013613
  107  H  5  X    0.000000  -0.048333   0.000000  -0.071591   0.000000
  108  H  5  Y    0.185929   0.000000  -0.228463   0.000000  -0.258385
  109  H  5  Z    0.009371   0.000000  -0.165297   0.000000  -0.310440
  110  H  5 XX   -0.004519   0.000000   0.023746   0.000000   0.022271
  111  H  5 YY    0.013193   0.000000  -0.025374   0.000000  -0.013728
  112  H  5 ZZ   -0.008674   0.000000   0.001628   0.000000  -0.008543
  113  H  5 XY    0.000000  -0.001738   0.000000   0.005438   0.000000
  114  H  5 XZ    0.000000   0.000507   0.000000  -0.002680   0.000000
  115  H  5 YZ    0.012828   0.000000  -0.026315   0.000000  -0.027247
  116  H  6  S   -0.059101   0.000000  -0.024380   0.000000   0.035792
  117  H  6  S   -1.099449   0.000000  -1.032815   0.000000   1.900530
  118  H  6  S   -0.317604   0.000000  -0.318949   0.000000  -0.147418
  119  H  6  X    0.000000   0.006341   0.000000  -0.009046   0.000000
  120  H  6  Y    0.018990   0.000000   0.018380   0.000000  -0.032051
  121  H  6  Z    0.011787   0.000000   0.004603   0.000000  -0.013613
  122  H  6  X    0.000000  -0.048333   0.000000   0.071591   0.000000
  123  H  6  Y    0.185929   0.000000   0.228463   0.000000  -0.258385
  124  H  6  Z    0.009371   0.000000   0.165297   0.000000  -0.310440
  125  H  6 XX    0.004519   0.000000   0.023746   0.000000  -0.022271
  126  H  6 YY   -0.013193   0.000000  -0.025374   0.000000   0.013728
  127  H  6 ZZ    0.008674   0.000000   0.001628   0.000000   0.008543
  128  H  6 XY    0.000000   0.001738   0.000000   0.005438   0.000000
  129  H  6 XZ    0.000000  -0.000507   0.000000  -0.002680   0.000000
  130  H  6 YZ   -0.012828   0.000000  -0.026315   0.000000   0.027247

                     21         22         23         24         25
                    0.5952     0.6357     0.6380     0.6787     0.6939
                     B2U        AG         B1U        B1G        B3G 
    1  C  1  S    0.000000   0.019871   0.026226   0.000000   0.000000
    2  C  1  S    0.000000  -0.198571  -0.211189   0.000000   0.000000
    3  C  1  S    0.000000  -0.081108  -0.159376   0.000000   0.000000
    4  C  1  S    0.000000   3.758982   8.579530   0.000000   0.000000
    5  C  1  X    0.000000   0.000000   0.000000   0.000000   0.000000
    6  C  1  Y   -0.197703   0.000000   0.000000   0.000000  -0.219226
    7  C  1  Z    0.000000   0.126764   0.101991   0.000000   0.000000
    8  C  1  X    0.000000   0.000000   0.000000   0.000000   0.000000
    9  C  1  Y    0.534298   0.000000   0.000000   0.000000   0.242813
   10  C  1  Z    0.000000  -0.355327  -0.636016   0.000000   0.000000
   11  C  1  X    0.000000   0.000000   0.000000   0.000000   0.000000
   12  C  1  Y    2.197972   0.000000   0.000000   0.000000   5.860507
   13  C  1  Z    0.000000  -1.137019   0.357475   0.000000   0.000000
   14  C  1 XX    0.000000  -0.023923  -0.009195   0.000000   0.000000
   15  C  1 YY    0.000000   0.038169   0.016322   0.000000   0.000000
   16  C  1 ZZ    0.000000  -0.014246  -0.007127   0.000000   0.000000
   17  C  1 XY    0.000000   0.000000   0.000000  -0.003048   0.000000
   18  C  1 XZ    0.000000   0.000000   0.000000   0.000000   0.000000
   19  C  1 YZ   -0.035487   0.000000   0.000000   0.000000  -0.027014
   20  C  1 XX    0.000000  -0.399085  -0.796225   0.000000   0.000000
   21  C  1 YY    0.000000   0.449177   0.967078   0.000000   0.000000
   22  C  1 ZZ    0.000000  -0.050093  -0.170854   0.000000   0.000000
   23  C  1 XY    0.000000   0.000000   0.000000   0.390666   0.000000
   24  C  1 XZ    0.000000   0.000000   0.000000   0.000000   0.000000
   25  C  1 YZ   -0.735973   0.000000   0.000000   0.000000  -0.565073
   26  C  1 XXX   0.000000   0.000000   0.000000   0.000000   0.000000
   27  C  1 YYY   0.036736   0.000000   0.000000   0.000000   0.031811
   28  C  1 ZZZ   0.000000   0.038821   0.049219   0.000000   0.000000
   29  C  1 XXY  -0.054293   0.000000   0.000000   0.000000  -0.061197
   30  C  1 XXZ   0.000000   0.031556   0.026881   0.000000   0.000000
   31  C  1 YYX   0.000000   0.000000   0.000000   0.000000   0.000000
   32  C  1 YYZ   0.000000  -0.083640  -0.092915   0.000000   0.000000
   33  C  1 ZZX   0.000000   0.000000   0.000000   0.000000   0.000000
   34  C  1 ZZY   0.005007   0.000000   0.000000   0.000000   0.018518
   35  C  1 XYZ   0.000000   0.000000   0.000000   0.002569   0.000000
   36  C  2  S    0.000000   0.019871  -0.026226   0.000000   0.000000
   37  C  2  S    0.000000  -0.198571   0.211189   0.000000   0.000000
   38  C  2  S    0.000000  -0.081108   0.159376   0.000000   0.000000
   39  C  2  S    0.000000   3.758982  -8.579530   0.000000   0.000000
   40  C  2  X    0.000000   0.000000   0.000000   0.000000   0.000000
   41  C  2  Y   -0.197703   0.000000   0.000000   0.000000   0.219226
   42  C  2  Z    0.000000  -0.126764   0.101991   0.000000   0.000000
   43  C  2  X    0.000000   0.000000   0.000000   0.000000   0.000000
   44  C  2  Y    0.534298   0.000000   0.000000   0.000000  -0.242813
   45  C  2  Z    0.000000   0.355327  -0.636016   0.000000   0.000000
   46  C  2  X    0.000000   0.000000   0.000000   0.000000   0.000000
   47  C  2  Y    2.197972   0.000000   0.000000   0.000000  -5.860507
   48  C  2  Z    0.000000   1.137019   0.357475   0.000000   0.000000
   49  C  2 XX    0.000000  -0.023923   0.009195   0.000000   0.000000
   50  C  2 YY    0.000000   0.038169  -0.016322   0.000000   0.000000
   51  C  2 ZZ    0.000000  -0.014246   0.007127   0.000000   0.000000
   52  C  2 XY    0.000000   0.000000   0.000000  -0.003048   0.000000
   53  C  2 XZ    0.000000   0.000000   0.000000   0.000000   0.000000
   54  C  2 YZ    0.035487   0.000000   0.000000   0.000000  -0.027014
   55  C  2 XX    0.000000  -0.399085   0.796225   0.000000   0.000000
   56  C  2 YY    0.000000   0.449177  -0.967078   0.000000   0.000000
   57  C  2 ZZ    0.000000  -0.050093   0.170854   0.000000   0.000000
   58  C  2 XY    0.000000   0.000000   0.000000   0.390666   0.000000
   59  C  2 XZ    0.000000   0.000000   0.000000   0.000000   0.000000
   60  C  2 YZ    0.735973   0.000000   0.000000   0.000000  -0.565073
   61  C  2 XXX   0.000000   0.000000   0.000000   0.000000   0.000000
   62  C  2 YYY   0.036736   0.000000   0.000000   0.000000  -0.031811
   63  C  2 ZZZ   0.000000  -0.038821   0.049219   0.000000   0.000000
   64  C  2 XXY  -0.054293   0.000000   0.000000   0.000000   0.061197
   65  C  2 XXZ   0.000000  -0.031556   0.026881   0.000000   0.000000
   66  C  2 YYX   0.000000   0.000000   0.000000   0.000000   0.000000
   67  C  2 YYZ   0.000000   0.083640  -0.092915   0.000000   0.000000
   68  C  2 ZZX   0.000000   0.000000   0.000000   0.000000   0.000000
   69  C  2 ZZY   0.005007   0.000000   0.000000   0.000000  -0.018518
   70  C  2 XYZ   0.000000   0.000000   0.000000  -0.002569   0.000000
   71  H  3  S   -0.058313   0.066878  -0.075515   0.000000   0.042474
   72  H  3  S    0.944327  -0.791282   1.647266   0.000000  -1.419560
   73  H  3  S    1.848131  -1.341470   1.574300   0.000000  -2.811823
   74  H  3  X    0.000000   0.000000   0.000000   0.024557   0.000000
   75  H  3  Y    0.006743   0.001972   0.006422   0.000000  -0.010244
   76  H  3  Z    0.003071   0.005714  -0.005956   0.000000  -0.002547
   77  H  3  X    0.000000   0.000000   0.000000  -0.238356   0.000000
   78  H  3  Y    0.526881  -0.635500   0.754898   0.000000  -0.482761
   79  H  3  Z   -0.385851   0.269615  -0.563722   0.000000   0.379873
   80  H  3 XX   -0.017525   0.028793  -0.034614   0.000000   0.014235
   81  H  3 YY    0.018929  -0.033277   0.026382   0.000000  -0.017072
   82  H  3 ZZ   -0.001404   0.004485   0.008232   0.000000   0.002837
   83  H  3 XY    0.000000   0.000000   0.000000   0.010129   0.000000
   84  H  3 XZ    0.000000   0.000000   0.000000  -0.002980   0.000000
   85  H  3 YZ   -0.033617   0.031633  -0.040140   0.000000   0.030730
   86  H  4  S    0.058313   0.066878   0.075515   0.000000   0.042474
   87  H  4  S   -0.944327  -0.791282  -1.647266   0.000000  -1.419560
   88  H  4  S   -1.848131  -1.341470  -1.574300   0.000000  -2.811823
   89  H  4  X    0.000000   0.000000   0.000000  -0.024557   0.000000
   90  H  4  Y    0.006743  -0.001972   0.006422   0.000000   0.010244
   91  H  4  Z    0.003071  -0.005714  -0.005956   0.000000   0.002547
   92  H  4  X    0.000000   0.000000   0.000000   0.238356   0.000000
   93  H  4  Y    0.526881   0.635500   0.754898   0.000000   0.482761
   94  H  4  Z   -0.385851  -0.269615  -0.563722   0.000000  -0.379873
   95  H  4 XX    0.017525   0.028793   0.034614   0.000000   0.014235
   96  H  4 YY   -0.018929  -0.033277  -0.026382   0.000000  -0.017072
   97  H  4 ZZ    0.001404   0.004485  -0.008232   0.000000   0.002837
   98  H  4 XY    0.000000   0.000000   0.000000   0.010129   0.000000
   99  H  4 XZ    0.000000   0.000000   0.000000  -0.002980   0.000000
  100  H  4 YZ    0.033617   0.031633   0.040140   0.000000   0.030730
  101  H  5  S   -0.058313   0.066878   0.075515   0.000000  -0.042474
  102  H  5  S    0.944327  -0.791282  -1.647266   0.000000   1.419560
  103  H  5  S    1.848131  -1.341470  -1.574300   0.000000   2.811823
  104  H  5  X    0.000000   0.000000   0.000000   0.024557   0.000000
  105  H  5  Y    0.006743   0.001972  -0.006422   0.000000   0.010244
  106  H  5  Z   -0.003071  -0.005714  -0.005956   0.000000  -0.002547
  107  H  5  X    0.000000   0.000000   0.000000  -0.238356   0.000000
  108  H  5  Y    0.526881  -0.635500  -0.754898   0.000000   0.482761
  109  H  5  Z    0.385851  -0.269615  -0.563722   0.000000   0.379873
  110  H  5 XX   -0.017525   0.028793   0.034614   0.000000  -0.014235
  111  H  5 YY    0.018929  -0.033277  -0.026382   0.000000   0.017072
  112  H  5 ZZ   -0.001404   0.004485  -0.008232   0.000000  -0.002837
  113  H  5 XY    0.000000   0.000000   0.000000   0.010129   0.000000
  114  H  5 XZ    0.000000   0.000000   0.000000   0.002980   0.000000
  115  H  5 YZ    0.033617  -0.031633  -0.040140   0.000000   0.030730
  116  H  6  S    0.058313   0.066878  -0.075515   0.000000  -0.042474
  117  H  6  S   -0.944327  -0.791282   1.647266   0.000000   1.419560
  118  H  6  S   -1.848131  -1.341470   1.574300   0.000000   2.811823
  119  H  6  X    0.000000   0.000000   0.000000  -0.024557   0.000000
  120  H  6  Y    0.006743  -0.001972  -0.006422   0.000000  -0.010244
  121  H  6  Z   -0.003071   0.005714  -0.005956   0.000000   0.002547
  122  H  6  X    0.000000   0.000000   0.000000   0.238356   0.000000
  123  H  6  Y    0.526881   0.635500  -0.754898   0.000000  -0.482761
  124  H  6  Z    0.385851   0.269615  -0.563722   0.000000  -0.379873
  125  H  6 XX    0.017525   0.028793  -0.034614   0.000000  -0.014235
  126  H  6 YY   -0.018929  -0.033277   0.026382   0.000000   0.017072
  127  H  6 ZZ    0.001404   0.004485   0.008232   0.000000  -0.002837
  128  H  6 XY    0.000000   0.000000   0.000000   0.010129   0.000000
  129  H  6 XZ    0.000000   0.000000   0.000000   0.002980   0.000000
  130  H  6 YZ   -0.033617  -0.031633   0.040140   0.000000   0.030730

                     26         27         28         29         30
                    0.7899     0.8286     0.8506     0.8750     0.9877
                     B1U        AU         B3G        B3U        AG  
    1  C  1  S    0.010833   0.000000   0.000000   0.000000  -0.020376
    2  C  1  S   -0.167608   0.000000   0.000000   0.000000  -0.013243
    3  C  1  S   -0.121863   0.000000   0.000000   0.000000  -0.070522
    4  C  1  S    8.920055   0.000000   0.000000   0.000000   1.426688
    5  C  1  X    0.000000   0.000000   0.000000  -0.022737   0.000000
    6  C  1  Y    0.000000   0.000000   0.120288   0.000000   0.000000
    7  C  1  Z   -0.252928   0.000000   0.000000   0.000000  -0.065529
    8  C  1  X    0.000000   0.000000   0.000000  -0.124210   0.000000
    9  C  1  Y    0.000000   0.000000   0.441417   0.000000   0.000000
   10  C  1  Z    0.408261   0.000000   0.000000   0.000000  -0.162894
   11  C  1  X    0.000000   0.000000   0.000000   0.266654   0.000000
   12  C  1  Y    0.000000   0.000000   3.771098   0.000000   0.000000
   13  C  1  Z    4.908503   0.000000   0.000000   0.000000  -0.997876
   14  C  1 XX   -0.010924   0.000000   0.000000   0.000000   0.016064
   15  C  1 YY   -0.039319   0.000000   0.000000   0.000000  -0.000480
   16  C  1 ZZ    0.050242   0.000000   0.000000   0.000000  -0.015583
   17  C  1 XY    0.000000   0.006918   0.000000   0.000000   0.000000
   18  C  1 XZ    0.000000   0.000000   0.000000   0.007236   0.000000
   19  C  1 YZ    0.000000   0.000000   0.026947   0.000000   0.000000
   20  C  1 XX   -0.501073   0.000000   0.000000   0.000000  -0.566718
   21  C  1 YY   -0.307158   0.000000   0.000000   0.000000   0.522585
   22  C  1 ZZ    0.808231   0.000000   0.000000   0.000000   0.044133
   23  C  1 XY    0.000000   0.127057   0.000000   0.000000   0.000000
   24  C  1 XZ    0.000000   0.000000   0.000000   0.388284   0.000000
   25  C  1 YZ    0.000000   0.000000  -0.934067   0.000000   0.000000
   26  C  1 XXX   0.000000   0.000000   0.000000  -0.002885   0.000000
   27  C  1 YYY   0.000000   0.000000   0.010438   0.000000   0.000000
   28  C  1 ZZZ   0.072291   0.000000   0.000000   0.000000   0.016017
   29  C  1 XXY   0.000000   0.000000  -0.032361   0.000000   0.000000
   30  C  1 XXZ  -0.049320   0.000000   0.000000   0.000000   0.019865
   31  C  1 YYX   0.000000   0.000000   0.000000   0.016641   0.000000
   32  C  1 YYZ  -0.047669   0.000000   0.000000   0.000000  -0.041354
   33  C  1 ZZX   0.000000   0.000000   0.000000  -0.012770   0.000000
   34  C  1 ZZY   0.000000   0.000000   0.018357   0.000000   0.000000
   35  C  1 XYZ   0.000000   0.030546   0.000000   0.000000   0.000000
   36  C  2  S   -0.010833   0.000000   0.000000   0.000000  -0.020376
   37  C  2  S    0.167608   0.000000   0.000000   0.000000  -0.013243
   38  C  2  S    0.121863   0.000000   0.000000   0.000000  -0.070522
   39  C  2  S   -8.920055   0.000000   0.000000   0.000000   1.426688
   40  C  2  X    0.000000   0.000000   0.000000  -0.022737   0.000000
   41  C  2  Y    0.000000   0.000000  -0.120288   0.000000   0.000000
   42  C  2  Z   -0.252928   0.000000   0.000000   0.000000   0.065529
   43  C  2  X    0.000000   0.000000   0.000000  -0.124210   0.000000
   44  C  2  Y    0.000000   0.000000  -0.441417   0.000000   0.000000
   45  C  2  Z    0.408261   0.000000   0.000000   0.000000   0.162894
   46  C  2  X    0.000000   0.000000   0.000000   0.266654   0.000000
   47  C  2  Y    0.000000   0.000000  -3.771098   0.000000   0.000000
   48  C  2  Z    4.908503   0.000000   0.000000   0.000000   0.997876
   49  C  2 XX    0.010924   0.000000   0.000000   0.000000   0.016064
   50  C  2 YY    0.039319   0.000000   0.000000   0.000000  -0.000480
   51  C  2 ZZ   -0.050242   0.000000   0.000000   0.000000  -0.015583
   52  C  2 XY    0.000000  -0.006918   0.000000   0.000000   0.000000
   53  C  2 XZ    0.000000   0.000000   0.000000  -0.007236   0.000000
   54  C  2 YZ    0.000000   0.000000   0.026947   0.000000   0.000000
   55  C  2 XX    0.501073   0.000000   0.000000   0.000000  -0.566718
   56  C  2 YY    0.307158   0.000000   0.000000   0.000000   0.522585
   57  C  2 ZZ   -0.808231   0.000000   0.000000   0.000000   0.044133
   58  C  2 XY    0.000000  -0.127057   0.000000   0.000000   0.000000
   59  C  2 XZ    0.000000   0.000000   0.000000  -0.388284   0.000000
   60  C  2 YZ    0.000000   0.000000  -0.934067   0.000000   0.000000
   61  C  2 XXX   0.000000   0.000000   0.000000  -0.002885   0.000000
   62  C  2 YYY   0.000000   0.000000  -0.010438   0.000000   0.000000
   63  C  2 ZZZ   0.072291   0.000000   0.000000   0.000000  -0.016017
   64  C  2 XXY   0.000000   0.000000   0.032361   0.000000   0.000000
   65  C  2 XXZ  -0.049320   0.000000   0.000000   0.000000  -0.019865
   66  C  2 YYX   0.000000   0.000000   0.000000   0.016641   0.000000
   67  C  2 YYZ  -0.047669   0.000000   0.000000   0.000000   0.041354
   68  C  2 ZZX   0.000000   0.000000   0.000000  -0.012770   0.000000
   69  C  2 ZZY   0.000000   0.000000  -0.018357   0.000000   0.000000
   70  C  2 XYZ   0.000000   0.030546   0.000000   0.000000   0.000000
   71  H  3  S    0.008710   0.000000  -0.042161   0.000000  -0.020086
   72  H  3  S    0.393523   0.000000  -1.956587   0.000000  -0.883262
   73  H  3  S   -0.779213   0.000000  -0.873639   0.000000  -0.195423
   74  H  3  X    0.000000  -0.035583   0.000000   0.027068   0.000000
   75  H  3  Y    0.010144   0.000000  -0.018148   0.000000  -0.016873
   76  H  3  Z    0.008469   0.000000   0.021992   0.000000   0.041497
   77  H  3  X    0.000000   0.491880   0.000000  -0.344948   0.000000
   78  H  3  Y   -0.102396   0.000000  -0.281289   0.000000  -0.024227
   79  H  3  Z   -0.211368   0.000000  -0.217214   0.000000  -0.341860
   80  H  3 XX   -0.000650   0.000000  -0.002164   0.000000  -0.001661
   81  H  3 YY   -0.006868   0.000000  -0.019861   0.000000  -0.000579
   82  H  3 ZZ    0.007518   0.000000   0.022025   0.000000   0.002240
   83  H  3 XY    0.000000   0.008496   0.000000  -0.001776   0.000000
   84  H  3 XZ    0.000000  -0.005030   0.000000  -0.005334   0.000000
   85  H  3 YZ    0.000864   0.000000  -0.000102   0.000000   0.003005
   86  H  4  S   -0.008710   0.000000  -0.042161   0.000000  -0.020086
   87  H  4  S   -0.393523   0.000000  -1.956587   0.000000  -0.883262
   88  H  4  S    0.779213   0.000000  -0.873639   0.000000  -0.195423
   89  H  4  X    0.000000  -0.035583   0.000000   0.027068   0.000000
   90  H  4  Y    0.010144   0.000000   0.018148   0.000000   0.016873
   91  H  4  Z    0.008469   0.000000  -0.021992   0.000000  -0.041497
   92  H  4  X    0.000000   0.491880   0.000000  -0.344948   0.000000
   93  H  4  Y   -0.102396   0.000000   0.281289   0.000000   0.024227
   94  H  4  Z   -0.211368   0.000000   0.217214   0.000000   0.341860
   95  H  4 XX    0.000650   0.000000  -0.002164   0.000000  -0.001661
   96  H  4 YY    0.006868   0.000000  -0.019861   0.000000  -0.000579
   97  H  4 ZZ   -0.007518   0.000000   0.022025   0.000000   0.002240
   98  H  4 XY    0.000000  -0.008496   0.000000   0.001776   0.000000
   99  H  4 XZ    0.000000   0.005030   0.000000   0.005334   0.000000
  100  H  4 YZ   -0.000864   0.000000  -0.000102   0.000000   0.003005
  101  H  5  S   -0.008710   0.000000   0.042161   0.000000  -0.020086
  102  H  5  S   -0.393523   0.000000   1.956587   0.000000  -0.883262
  103  H  5  S    0.779213   0.000000   0.873639   0.000000  -0.195423
  104  H  5  X    0.000000   0.035583   0.000000   0.027068   0.000000
  105  H  5  Y   -0.010144   0.000000   0.018148   0.000000  -0.016873
  106  H  5  Z    0.008469   0.000000   0.021992   0.000000  -0.041497
  107  H  5  X    0.000000  -0.491880   0.000000  -0.344948   0.000000
  108  H  5  Y    0.102396   0.000000   0.281289   0.000000  -0.024227
  109  H  5  Z   -0.211368   0.000000  -0.217214   0.000000   0.341860
  110  H  5 XX    0.000650   0.000000   0.002164   0.000000  -0.001661
  111  H  5 YY    0.006868   0.000000   0.019861   0.000000  -0.000579
  112  H  5 ZZ   -0.007518   0.000000  -0.022025   0.000000   0.002240
  113  H  5 XY    0.000000  -0.008496   0.000000  -0.001776   0.000000
  114  H  5 XZ    0.000000  -0.005030   0.000000   0.005334   0.000000
  115  H  5 YZ    0.000864   0.000000  -0.000102   0.000000  -0.003005
  116  H  6  S    0.008710   0.000000   0.042161   0.000000  -0.020086
  117  H  6  S    0.393523   0.000000   1.956587   0.000000  -0.883262
  118  H  6  S   -0.779213   0.000000   0.873639   0.000000  -0.195423
  119  H  6  X    0.000000   0.035583   0.000000   0.027068   0.000000
  120  H  6  Y   -0.010144   0.000000  -0.018148   0.000000   0.016873
  121  H  6  Z    0.008469   0.000000  -0.021992   0.000000   0.041497
  122  H  6  X    0.000000  -0.491880   0.000000  -0.344948   0.000000
  123  H  6  Y    0.102396   0.000000  -0.281289   0.000000   0.024227
  124  H  6  Z   -0.211368   0.000000   0.217214   0.000000  -0.341860
  125  H  6 XX   -0.000650   0.000000   0.002164   0.000000  -0.001661
  126  H  6 YY   -0.006868   0.000000   0.019861   0.000000  -0.000579
  127  H  6 ZZ    0.007518   0.000000  -0.022025   0.000000   0.002240
  128  H  6 XY    0.000000   0.008496   0.000000   0.001776   0.000000
  129  H  6 XZ    0.000000   0.005030   0.000000  -0.005334   0.000000
  130  H  6 YZ   -0.000864   0.000000  -0.000102   0.000000  -0.003005

                     31         32         33         34         35
                    1.0805     1.0991     1.1809     1.2133     1.2192
                     B3G        B2U        B2G        AG         B1G 
    1  C  1  S    0.000000   0.000000   0.000000  -0.106293   0.000000
    2  C  1  S    0.000000   0.000000   0.000000  -0.249934   0.000000
    3  C  1  S    0.000000   0.000000   0.000000  -0.191017   0.000000
    4  C  1  S    0.000000   0.000000   0.000000   1.368028   0.000000
    5  C  1  X    0.000000   0.000000   0.111400   0.000000   0.000000
    6  C  1  Y    0.079506   0.059500   0.000000   0.000000   0.000000
    7  C  1  Z    0.000000   0.000000   0.000000   0.095543   0.000000
    8  C  1  X    0.000000   0.000000   0.442008   0.000000   0.000000
    9  C  1  Y   -0.278182   1.081888   0.000000   0.000000   0.000000
   10  C  1  Z    0.000000   0.000000   0.000000  -0.869347   0.000000
   11  C  1  X    0.000000   0.000000   1.002303   0.000000   0.000000
   12  C  1  Y    2.733993   1.381005   0.000000   0.000000   0.000000
   13  C  1  Z    0.000000   0.000000   0.000000   1.048580   0.000000
   14  C  1 XX    0.000000   0.000000   0.000000  -0.003836   0.000000
   15  C  1 YY    0.000000   0.000000   0.000000   0.044098   0.000000
   16  C  1 ZZ    0.000000   0.000000   0.000000  -0.040262   0.000000
   17  C  1 XY    0.000000   0.000000   0.000000   0.000000  -0.009275
   18  C  1 XZ    0.000000   0.000000  -0.004520   0.000000   0.000000
   19  C  1 YZ   -0.013157  -0.004583   0.000000   0.000000   0.000000
   20  C  1 XX    0.000000   0.000000   0.000000  -0.964838   0.000000
   21  C  1 YY    0.000000   0.000000   0.000000   0.074471   0.000000
   22  C  1 ZZ    0.000000   0.000000   0.000000   0.890367   0.000000
   23  C  1 XY    0.000000   0.000000   0.000000   0.000000   0.875756
   24  C  1 XZ    0.000000   0.000000   0.065090   0.000000   0.000000
   25  C  1 YZ    0.595781  -0.807058   0.000000   0.000000   0.000000
   26  C  1 XXX   0.000000   0.000000  -0.042828   0.000000   0.000000
   27  C  1 YYY   0.067041   0.047579   0.000000   0.000000   0.000000
   28  C  1 ZZZ   0.000000   0.000000   0.000000   0.089902   0.000000
   29  C  1 XXY   0.002088  -0.047142   0.000000   0.000000   0.000000
   30  C  1 XXZ   0.000000   0.000000   0.000000   0.002876   0.000000
   31  C  1 YYX   0.000000   0.000000   0.045493   0.000000   0.000000
   32  C  1 YYZ   0.000000   0.000000   0.000000  -0.123492   0.000000
   33  C  1 ZZX   0.000000   0.000000   0.011967   0.000000   0.000000
   34  C  1 ZZY  -0.092033  -0.016692   0.000000   0.000000   0.000000
   35  C  1 XYZ   0.000000   0.000000   0.000000   0.000000  -0.058002
   36  C  2  S    0.000000   0.000000   0.000000  -0.106293   0.000000
   37  C  2  S    0.000000   0.000000   0.000000  -0.249934   0.000000
   38  C  2  S    0.000000   0.000000   0.000000  -0.191017   0.000000
   39  C  2  S    0.000000   0.000000   0.000000   1.368028   0.000000
   40  C  2  X    0.000000   0.000000  -0.111400   0.000000   0.000000
   41  C  2  Y   -0.079506   0.059500   0.000000   0.000000   0.000000
   42  C  2  Z    0.000000   0.000000   0.000000  -0.095543   0.000000
[...]
 ITER: 13   CCSD    CORR. ENERGY:  -0.3601746240   CONV.: -1.3378E-07
 ITER: 14   CCSD    CORR. ENERGY:  -0.3601746313   CONV.: -3.8499E-08
 ITER: 15   CCSD    CORR. ENERGY:  -0.3601746341   CONV.: -3.8499E-08

     THE    CCSD     ITERATIONS HAVE CONVERGED

    MBPT(2) CORRELATION ENERGY:  -0.3356865151
    CCSD    CORRELATION ENERGY:  -0.3601746341

 T1 DIAGNOSTIC        =     0.01077120
 NORM OF THE T1 VECTOR=     0.03731252
 NORM OF THE T2 VECTOR=     0.34527218

 THE FIVE LARGEST T1 AMPLITUDES ARE:
 T1 AMPLITUDE IS  0.024253 FOR I=   8 -> A=  17
 T1 AMPLITUDE IS -0.015145 FOR I=   8 -> A=  29
 T1 AMPLITUDE IS  0.010053 FOR I=   8 -> A=  36
 T1 AMPLITUDE IS  0.009051 FOR I=   8 -> A=  50
 T1 AMPLITUDE IS -0.008268 FOR I=   5 -> A=  16

 THE FIVE LARGEST SPIN-UNIQUE T2 AMPLITUDES ARE:
 T2 AMPLITUDE IS -0.119690 FOR I,J=   8   8 -> A,B=   9   9
 T2 AMPLITUDE IS  0.052946 FOR I,J=   8   8 -> A,B=   9  19
 T2 AMPLITUDE IS -0.030000 FOR I,J=   8   8 -> A,B=  19  19
 T2 AMPLITUDE IS -0.025841 FOR I,J=   8   8 -> A,B=  18  18
 T2 AMPLITUDE IS -0.025458 FOR I,J=   8   8 -> A,B=  17  17
 PRINTED T2(I-ALPHA,J-BETA -> A-ALPHA,B-BETA) VALUES
 EQUAL   T2(J-ALPHA,I-BETA -> B-ALPHA,A-BETA) AMPLITUDES.

 ....... DONE WITH CC AMPLITUDE ITERATIONS .......
 CPU     0: STEP CPU TIME=   149.78 TOTAL CPU TIME=    15748.8 (  262.5 MIN)
 TOTAL WALL CLOCK TIME=    15748.8 SECONDS, CPU UTILIZATION IS 100.00%

 RUNNING THE DISTRIBUTED DATA, PARALLEL TRIPLES CORRECTION...

   REPLICATED MEMORY REQUIRED FOR TRIPLES IS        12960 WORDS.
       SHARED MEMORY REQUIRED FOR TRIPLES IS      3361824 WORDS.
  DISTRIBUTED MEMORY IS ALREADY ALLOCATED ABOVE.


                      SUMMARY OF RESULTS

      REFERENCE ENERGY:      -78.0635651487
        MBPT(2) ENERGY:      -78.3992516638   CORR.E=  -0.3356865151
        CCSD    ENERGY:      -78.4237397828   CORR.E=  -0.3601746341
        CCSD[T] ENERGY:      -78.4391942575   CORR.E=  -0.3756291088
        CCSD(T) ENERGY:      -78.4387764874   CORR.E=  -0.3752113387

 THE FOLLOWING METHOD AND ENERGY WILL BE CONSIDERED THE HIGHEST LEVEL RESULT:
 COUPLED-CLUSTER ENERGY E(   CCSD(T)) =      -78.4387764874

 ..... DONE WITH CC NON-ITERATIVE TRIPLES CORRECTIONS .....
 CPU     0: STEP CPU TIME=     4.86 TOTAL CPU TIME=    15753.7 (  262.6 MIN)
 TOTAL WALL CLOCK TIME=    15753.7 SECONDS, CPU UTILIZATION IS 100.00%
 ...... END OF NUMERICAL HESSIAN CALCULATION ......

          ---------------
          ENERGY GRADIENT
          ---------------

 UNITS ARE HARTREE/BOHR    E'X               E'Y               E'Z 
    1 CARBON           0.000000000       0.000000000       0.000101013
    2 CARBON           0.000000000       0.000000000      -0.000101013
    3 HYDROGEN         0.000000000       0.000015019       0.000012526
    4 HYDROGEN         0.000000000      -0.000015019      -0.000012526
    5 HYDROGEN         0.000000000       0.000015019      -0.000012526
    6 HYDROGEN         0.000000000      -0.000015019       0.000012526

          -------------------------------
          CARTESIAN FORCE CONSTANT MATRIX
          -------------------------------

                                   1                          2
                               CARBON                     CARBON    
                          X        Y        Z        X        Y        Z
  1   CARBON       X 0.103842 0.000000 0.000000-0.042788 0.000000 0.000000
                   Y 0.000000 0.639196 0.000000 0.000000-0.111759 0.000000
                   Z 0.000000 0.000000 0.832766 0.000000 0.000000-0.547698
  2   CARBON       X-0.042788 0.000000 0.000000 0.103842 0.000000 0.000000
                   Y 0.000000-0.111759 0.000000 0.000000 0.639196 0.000000
                   Z 0.000000 0.000000-0.547698 0.000000 0.000000 0.832766
  3   HYDROGEN     X 0.004600 0.000000 0.000000-0.035130 0.000000 0.000000
                   Y 0.000000 0.003589-0.003329 0.000000-0.267310 0.125334
                   Z 0.000000 0.030258-0.011987 0.000000 0.120303-0.130549
  4   HYDROGEN     X-0.035130 0.000000 0.000000 0.004600 0.000000 0.000000
                   Y 0.000000-0.267310 0.125334 0.000000 0.003589-0.003329
                   Z 0.000000 0.120303-0.130549 0.000000 0.030258-0.011987
  5   HYDROGEN     X-0.035130 0.000000 0.000000 0.004600 0.000000 0.000000
                   Y 0.000000-0.267310-0.125334 0.000000 0.003589 0.003329
                   Z 0.000000-0.120303-0.130549 0.000000-0.030258-0.011987
  6   HYDROGEN     X 0.004600 0.000000 0.000000-0.035130 0.000000 0.000000
                   Y 0.000000 0.003589 0.003329 0.000000-0.267310-0.125334
                   Z 0.000000-0.030258-0.011987 0.000000-0.120303-0.130549

                                   3                          4
                               HYDROGEN                   HYDROGEN  
                          X        Y        Z        X        Y        Z
  3   HYDROGEN     X 0.023479 0.000000 0.000000 0.012695 0.000000 0.000000
                   Y 0.000000 0.276625-0.135536 0.000000 0.001591-0.000745
                   Z 0.000000-0.135536 0.136324 0.000000-0.000745-0.005233
  4   HYDROGEN     X 0.012695 0.000000 0.000000 0.023479 0.000000 0.000000
                   Y 0.000000 0.001591-0.000745 0.000000 0.276625-0.135536
                   Z 0.000000-0.000745-0.005233 0.000000-0.135536 0.136324
  5   HYDROGEN     X-0.008202 0.000000 0.000000 0.002556 0.000000 0.000000
                   Y 0.000000 0.001287-0.000321 0.000000-0.015781-0.013956
                   Z 0.000000 0.000321 0.001452 0.000000 0.013956 0.009993
  6   HYDROGEN     X 0.002556 0.000000 0.000000-0.008202 0.000000 0.000000
                   Y 0.000000-0.015781-0.013956 0.000000 0.001287-0.000321
                   Z 0.000000 0.013956 0.009993 0.000000 0.000321 0.001452

                                   5                          6
                               HYDROGEN                   HYDROGEN  
                          X        Y        Z        X        Y        Z
  5   HYDROGEN     X 0.023479 0.000000 0.000000 0.012695 0.000000 0.000000
                   Y 0.000000 0.276625 0.135536 0.000000 0.001591 0.000745
                   Z 0.000000 0.135536 0.136324 0.000000 0.000745-0.005233
  6   HYDROGEN     X 0.012695 0.000000 0.000000 0.023479 0.000000 0.000000
                   Y 0.000000 0.001591 0.000745 0.000000 0.276625 0.135536
                   Z 0.000000 0.000745-0.005233 0.000000 0.135536 0.136324

          --------------------------------------------------------
          NORMAL COORDINATE ANALYSIS IN THE HARMONIC APPROXIMATION
          --------------------------------------------------------

          ATOMIC WEIGHTS (AMU)

    1     CARBON           12.00000
    2     CARBON           12.00000
    3     HYDROGEN          1.00782
    4     HYDROGEN          1.00782
    5     HYDROGEN          1.00782
    6     HYDROGEN          1.00782

 MODES 1 TO 6 ARE TAKEN AS ROTATIONS AND TRANSLATIONS.

 ANALYZING SYMMETRY OF NORMAL MODES...

 --- SYMMETRY FOR NORMAL MODES ---
 INCLUDING TRANSLATION AND ROTATION
    3*AG     1*AU     2*B3U    3*B3G    1*B1G    3*B1U    3*B2U    2*B2G 
 EXCLUDING TRANSLATION AND ROTATION (SAYVETZ < 0.01)
    3*AG     1*AU     1*B3U    2*B3G    0*B1G    2*B1U    2*B2U    1*B2G 

     FREQUENCIES IN CM**-1, IR INTENSITIES IN DEBYE**2/AMU-ANGSTROM**2,
     REDUCED MASSES IN AMU.

                          1           2           3           4           5
       FREQUENCY:         4.54        2.51        1.79        3.76       10.63  
        SYMMETRY:         B3U         B2U         B1U         B3G         B2G 
    REDUCED MASS:      4.67165     4.67220     4.67198     1.95265     2.41606

  1   CARBON       X  0.18887542  0.00000000  0.00000000  0.00000000  0.16282710
                   Y  0.00000000  0.18887844  0.00000000  0.14835653  0.00000000
                   Z  0.00000000  0.00000000  0.18887721  0.00000000  0.00000000
  2   CARBON       X  0.18887542  0.00000000  0.00000000  0.00000000 -0.16282710
                   Y  0.00000000  0.18887844  0.00000000 -0.14835653  0.00000000
                   Z  0.00000000  0.00000000  0.18887721  0.00000000  0.00000000
  3   HYDROGEN     X  0.18888430  0.00000000  0.00000000  0.00000000 -0.30036322
                   Y  0.00000000  0.18886632 -0.00000233 -0.27379725  0.00000000
                   Z  0.00000000 -0.00001976  0.18887366 -0.20508870  0.00000000
  4   HYDROGEN     X  0.18888430  0.00000000  0.00000000  0.00000000  0.30036322
                   Y  0.00000000  0.18886632 -0.00000233  0.27379725  0.00000000
                   Z  0.00000000 -0.00001976  0.18887366  0.20508870  0.00000000
  5   HYDROGEN     X  0.18888430  0.00000000  0.00000000  0.00000000  0.30036322
                   Y  0.00000000  0.18886632  0.00000233  0.27379725  0.00000000
                   Z  0.00000000  0.00001976  0.18887366 -0.20508870  0.00000000
  6   HYDROGEN     X  0.18888430  0.00000000  0.00000000  0.00000000 -0.30036322
                   Y  0.00000000  0.18886632  0.00000233 -0.27379725  0.00000000
                   Z  0.00000000  0.00001976  0.18887366  0.20508870  0.00000000

 TRANS. SAYVETZ    X  5.29445937  0.00000000  0.00000000  0.00000000  0.00000000
                   Y  0.00000000  5.29445936  0.00000000  0.00000000  0.00000000
                   Z  0.00000000  0.00000000  5.29445937  0.00000000  0.00000000
               TOTAL  5.29445937  5.29445936  5.29445937  0.00000000  0.00000000

   ROT. SAYVETZ    X  0.00000000  0.00000000  0.00000000  8.51575219  0.00000000
                   Y  0.00000000  0.00000000  0.00000000  0.00000000 -7.76048936
                   Z  0.00000000  0.00000000  0.00000000  0.00000000  0.00000000
               TOTAL  0.00000000  0.00000000  0.00000000  8.51575219  7.76048936

                          6           7           8           9          10
       FREQUENCY:        26.11      822.89      942.12      966.90     1047.16  
        SYMMETRY:         B1G         B2U         B2G         B3U         AU  
    REDUCED MASS:      1.00782     1.04206     1.51132     1.16075     1.00783

  1   CARBON       X  0.00000000  0.00000000 -0.12310160 -0.07741281  0.00000000
                   Y  0.00000000  0.03865848  0.00000000  0.00000000  0.00000000
                   Z  0.00000000  0.00000000  0.00000000  0.00000000  0.00000000
  2   CARBON       X  0.00000000  0.00000000  0.12310160 -0.07741281  0.00000000
                   Y  0.00000000  0.03865848  0.00000000  0.00000000  0.00000000
                   Z  0.00000000  0.00000000  0.00000000  0.00000000  0.00000000
  3   HYDROGEN     X -0.49805516  0.00000000 -0.39729193  0.46084885 -0.49805516
                   Y  0.00000000 -0.23020986  0.00000000  0.00000000  0.00000000
                   Z  0.00000000 -0.43146856  0.00000000  0.00000000  0.00000000
  4   HYDROGEN     X  0.49805516  0.00000000  0.39729193  0.46084885 -0.49805516
                   Y  0.00000000 -0.23020986  0.00000000  0.00000000  0.00000000
                   Z  0.00000000 -0.43146856  0.00000000  0.00000000  0.00000000
  5   HYDROGEN     X -0.49805516  0.00000000  0.39729193  0.46084885  0.49805516
                   Y  0.00000000 -0.23020986  0.00000000  0.00000000  0.00000000
                   Z  0.00000000  0.43146856  0.00000000  0.00000000  0.00000000
  6   HYDROGEN     X  0.49805516  0.00000000 -0.39729193  0.46084885  0.49805516
                   Y  0.00000000 -0.23020986  0.00000000  0.00000000  0.00000000
                   Z  0.00000000  0.43146856  0.00000000  0.00000000  0.00000000

 TRANS. SAYVETZ    X  0.00000000  0.00000000  0.00000000 -0.00008737  0.00000000
                   Y  0.00000000 -0.00024157  0.00000000  0.00000000  0.00000000
                   Z  0.00000000  0.00000000  0.00000000  0.00000000  0.00000000
               TOTAL  0.00000000  0.00024157  0.00000000  0.00008737  0.00000000

   ROT. SAYVETZ    X  0.00000000  0.00000000  0.00000000  0.00000000  0.00000000
                   Y  0.00000000  0.00000000 -0.00144939  0.00000000  0.00000000
                   Z -3.50611443  0.00000000  0.00000000  0.00000000  0.00000000
               TOTAL  3.50611443  0.00000000  0.00144939  0.00000000  0.00000000

                         11          12          13          14          15
       FREQUENCY:      1242.04     1368.90     1478.87     1671.66     3138.89  
        SYMMETRY:         B3G         AG          B1U         AG          B1U 
    REDUCED MASS:      1.51778     1.30153     1.11276     2.72416     1.04701

  1   CARBON       X  0.00000000  0.00000000  0.00000000  0.00000000  0.00000000
                   Y -0.12362447  0.00000000  0.00000000  0.00000000  0.00000000
                   Z  0.00000000  0.10131411 -0.06549467 -0.16928864 -0.04126155
  2   CARBON       X  0.00000000  0.00000000  0.00000000  0.00000000  0.00000000
                   Y  0.12362447  0.00000000  0.00000000  0.00000000  0.00000000
                   Z  0.00000000 -0.10131411 -0.06549467  0.16928864 -0.04126155
  3   HYDROGEN     X  0.00000000  0.00000000  0.00000000  0.00000000  0.00000000
                   Y -0.11460957 -0.16122472  0.26547690 -0.22465497 -0.42140355
                   Z -0.37939095 -0.40119373  0.38992752 -0.16423246  0.24564651
  4   HYDROGEN     X  0.00000000  0.00000000  0.00000000  0.00000000  0.00000000
                   Y  0.11460957  0.16122472  0.26547690  0.22465497 -0.42140355
                   Z  0.37939095  0.40119373  0.38992752  0.16423246  0.24564651
  5   HYDROGEN     X  0.00000000  0.00000000  0.00000000  0.00000000  0.00000000
                   Y  0.11460957 -0.16122472 -0.26547690 -0.22465497  0.42140355
                   Z -0.37939095  0.40119373  0.38992752  0.16423246  0.24564651
  6   HYDROGEN     X  0.00000000  0.00000000  0.00000000  0.00000000  0.00000000
                   Y -0.11460957  0.16122472 -0.26547690  0.22465497  0.42140355
                   Z  0.37939095 -0.40119373  0.38992752 -0.16423246  0.24564651

 TRANS. SAYVETZ    X  0.00000000  0.00000000  0.00000000  0.00000000  0.00000000
                   Y  0.00000000  0.00000000  0.00000000  0.00000000  0.00000000
                   Z  0.00000000  0.00000000  0.00004272  0.00000000 -0.00000233
               TOTAL  0.00000000  0.00000000  0.00004272  0.00000000  0.00000233

   ROT. SAYVETZ    X -0.00061270  0.00000000  0.00000000  0.00000000  0.00000000
                   Y  0.00000000  0.00000000  0.00000000  0.00000000  0.00000000
                   Z  0.00000000  0.00000000  0.00000000  0.00000000  0.00000000
               TOTAL  0.00061270  0.00000000  0.00000000  0.00000000  0.00000000

                         16          17          18
       FREQUENCY:      3156.86     3219.05     3245.92  
        SYMMETRY:         AG          B3G         B2U 
    REDUCED MASS:      1.07251     1.11505     1.11840

  1   CARBON       X  0.00000000  0.00000000  0.00000000
                   Y  0.00000000  0.06613620 -0.06706060
                   Z  0.05237818  0.00000000  0.00000000
  2   CARBON       X  0.00000000  0.00000000  0.00000000
                   Y  0.00000000 -0.06613620 -0.06706060
                   Z -0.05237818  0.00000000  0.00000000
  3   HYDROGEN     X  0.00000000  0.00000000  0.00000000
                   Y -0.41424108  0.39994831  0.39923912
                   Z  0.24521466 -0.24911859 -0.24878469
  4   HYDROGEN     X  0.00000000  0.00000000  0.00000000
                   Y  0.41424108 -0.39994831  0.39923912
                   Z -0.24521466  0.24911859 -0.24878469
  5   HYDROGEN     X  0.00000000  0.00000000  0.00000000
                   Y -0.41424108 -0.39994831  0.39923912
                   Z -0.24521466 -0.24911859  0.24878469
  6   HYDROGEN     X  0.00000000  0.00000000  0.00000000
                   Y  0.41424108  0.39994831  0.39923912
                   Z  0.24521466  0.24911859  0.24878469

 TRANS. SAYVETZ    X  0.00000000  0.00000000  0.00000000
                   Y  0.00000000  0.00000000 -0.00000167
                   Z  0.00000000  0.00000000  0.00000000
               TOTAL  0.00000000  0.00000000  0.00000167

   ROT. SAYVETZ    X  0.00000000 -0.00005525  0.00000000
                   Y  0.00000000  0.00000000  0.00000000
                   Z  0.00000000  0.00000000  0.00000000
               TOTAL  0.00000000  0.00005525  0.00000000

 REFERENCE ON SAYVETZ CONDITIONS - A. SAYVETZ, J.CHEM.PHYS., 7, 383-389(1939).

 NOTE - THE MODES J,K ARE ORTHONORMALIZED ACCORDING TO
 SUM ON I   M(I) * (X(I,J)*X(I,K) + Y(I,J)*Y(I,K) + Z(I,J)*Z(I,K)) = DELTA(J,K)

     -------------------------------
     THERMOCHEMISTRY AT T=  298.15 K
     -------------------------------

 USING IDEAL GAS, RIGID ROTOR, HARMONIC NORMAL MODE APPROXIMATIONS.
 P=  1.01325E+05 PASCAL.
 ALL FREQUENCIES ARE SCALED BY   1.00000
 THE MOMENTS OF INERTIA ARE (IN AMU*BOHR**2)
     12.29284    60.22520    72.51804
 THE ROTATIONAL SYMMETRY NUMBER IS  4.0
 THE ROTATIONAL CONSTANTS ARE (IN GHZ)
    146.67794    29.93910    24.86400
 THE HARMONIC ZERO POINT ENERGY IS (SCALED BY   1.000)
        0.050806 HARTREE/MOLECULE    11150.628583 CM**-1/MOLECULE 
       31.881279 KCAL/MOL              133.391271 KJ/MOL

               Q               LN Q
 ELEC.     1.00000E+00       0.000000
 TRANS.    5.83336E+06      15.579103
 ROT.      6.55722E+02       6.485737
 VIB.      1.05182E+00       0.050521
 TOT.      4.02327E+09      22.115361

              E         H         G         CV        CP        S
           KJ/MOL    KJ/MOL    KJ/MOL   J/MOL-K   J/MOL-K   J/MOL-K
 ELEC.      0.000     0.000     0.000     0.000     0.000     0.000
 TRANS.     3.718     6.197   -38.620    12.472    20.786   150.317
 ROT.       3.718     3.718   -16.078    12.472    12.472    66.397
 VIB.     133.971   133.971   133.266     9.289     9.289     2.366
 TOTAL    141.408   143.887    78.569    34.232    42.547   219.079
 VIB. THERMAL CORRECTION E(T)-E(0) = H(T)-H(0) =   580.110 J/MOL

              E         H         G         CV        CP        S
         KCAL/MOL  KCAL/MOL  KCAL/MOL CAL/MOL-K CAL/MOL-K CAL/MOL-K
 ELEC.      0.000     0.000     0.000     0.000     0.000     0.000
 TRANS.     0.889     1.481    -9.230     2.981     4.968    35.927
 ROT.       0.889     0.889    -3.843     2.981     2.981    15.869
 VIB.      32.020    32.020    31.851     2.220     2.220     0.565
 TOTAL     33.797    34.390    18.778     8.182    10.169    52.361
 VIB. THERMAL CORRECTION E(T)-E(0) = H(T)-H(0) =   138.650 CAL/MOL
 ......END OF NORMAL COORDINATE ANALYSIS......
 CPU     0: STEP CPU TIME=     0.04 TOTAL CPU TIME=    15753.7 (  262.6 MIN)
 TOTAL WALL CLOCK TIME=    15753.7 SECONDS, CPU UTILIZATION IS 100.00%
                  4133158  WORDS OF DYNAMIC MEMORY USED
 EXECUTION OF GAMESS TERMINATED NORMALLY Mon Sep 11 17:56:20 2017
 DDI: 19372696 bytes (18.5 MB / 2 MWords) used by master data server.

 ----------------------------------------
 CPU timing information for all processes
 ========================================
 0: 13231.989219 + 211.272154 = 13443.261373
 1: 12253.067344 + 163.567048 = 12416.634392
 2: 13272.471479 + 164.113052 = 13436.584531
 3: 12039.455175 + 160.057026 = 12199.512201
 4: 3034.843454 + 173.161110 = 3208.004564
 5: 2098.260250 + 117.156751 = 2215.417001
 6: 2324.617701 + 120.682373 = 2445.300074
 7: 2110.693530 + 128.045620 = 2238.739150
 ----------------------------------------
           Disk usage (in bytes)       
 ========================================
 ----------------------------------------
            Local date and time          
 ========================================
11.09.2017 - 17:56:26.36                          
