
 Distributed Data Interface kickoff program.
 Initiating 1 compute processes on 1 nodes to run the following command:
 e:\tmp\WinGAMESS/gamess.10.exe c6h6-dir-ccd(tq) 

          ******************************************************
          *         GAMESS VERSION = 25 MAR 2010 (R2)          *
          *             FROM IOWA STATE UNIVERSITY             *
          * M.W.SCHMIDT, K.K.BALDRIDGE, J.A.BOATZ, S.T.ELBERT, *
          *   M.S.GORDON, J.H.JENSEN, S.KOSEKI, N.MATSUNAGA,   *
          *          K.A.NGUYEN, S.J.SU, T.L.WINDUS,           *
          *       TOGETHER WITH M.DUPUIS, J.A.MONTGOMERY       *
          *         J.COMPUT.CHEM.  14, 1347-1363(1993)        *
          **************** 32 BIT LINUX VERSION ****************

  SINCE 1993, STUDENTS AND POSTDOCS WORKING AT IOWA STATE UNIVERSITY
  AND ALSO IN THEIR VARIOUS JOBS AFTER LEAVING ISU HAVE MADE IMPORTANT
  CONTRIBUTIONS TO THE CODE:
     IVANA ADAMOVIC, CHRISTINE AIKENS, YURI ALEXEEV, POOJA ARORA,
     ANDREY ASADCHEV, ROB BELL, PRADIPTA BANDYOPADHYAY, JONATHAN BENTZ,
     BRETT BODE, GALINA CHABAN, WEI CHEN, CHEOL HO CHOI, PAUL DAY, TIM DUDLEY,
     DMITRI FEDOROV, GRAHAM FLETCHER, MARK FREITAG, KURT GLAESEMANN, DAN KEMP,
     GRANT MERRILL, JONATHAN MULLIN, TAKESHI NAGATA, SEAN NEDD,
     HEATHER NETZLOFF, BOSILJKA NJEGIC, RYAN OLSON, MIKE PAK, JIM SHOEMAKER,
     LYUDMILA SLIPCHENKO, SAROM SOK, JIE SONG, TETSUYA TAKETSUGU,
     SIMON WEBB, SOOHAENG YOO, FEDERICO ZAHARIEV

  ADDITIONAL CODE HAS BEEN PROVIDED BY COLLABORATORS IN OTHER GROUPS:
     IOWA STATE UNIVERSITY: JOE IVANIC, LAIMUTIS BYTAUTAS,
          KLAUS RUEDENBERG
     UNIVERSITY OF TOKYO: KIMIHIKO HIRAO, TAKAHITO NAKAJIMA,
          TAKAO TSUNEDA, MUNEAKI KAMIYA, SUSUMU YANAGISAWA,
          KIYOSHI YAGI, MAHITO CHIBA, SEIKEN TOKURA, NAOAKI KAWAKAMI
     UNIVERSITY OF AARHUS: FRANK JENSEN
     UNIVERSITY OF IOWA: VISVALDAS KAIRYS, HUI LI
     NATIONAL INST. OF STANDARDS AND TECHNOLOGY: WALT STEVENS, DAVID GARMER
     UNIVERSITY OF PISA: BENEDETTA MENNUCCI, JACOPO TOMASI
     UNIVERSITY OF MEMPHIS: HENRY KURTZ, PRAKASHAN KORAMBATH
     UNIVERSITY OF ALBERTA: TOBY ZENG, MARIUSZ KLOBUKOWSKI
     UNIVERSITY OF NEW ENGLAND: MARK SPACKMAN
     MIE UNIVERSITY: HIROAKI UMEDA
     MICHIGAN STATE UNIVERSITY:
          KAROL KOWALSKI, MARTA WLOCH, JEFFREY GOUR, JESSE LUTZ, PIOTR PIECUCH
     UNIVERSITY OF SILESIA: MONIKA MUSIAL, STANISLAW KUCHARSKI
     FACULTES UNIVERSITAIRES NOTRE-DAME DE LA PAIX:
          OLIVIER QUINET, BENOIT CHAMPAGNE
     UNIVERSITY OF CALIFORNIA - SANTA BARBARA: BERNARD KIRTMAN
     INSTITUTE FOR MOLECULAR SCIENCE: KAZUYA ISHIMURA AND SHIGERU NAGASE
     UNIVERSITY OF NOTRE DAME: DAN CHIPMAN
     KYUSHU UNIVERSITY:
          HARUYUKI NAKANO,
          FENG LONG GU, JACEK KORCHOWIEC, MARCIN MAKOWSKI, AND YURIKO AOKI,
          HIROTOSHI MORI AND EISAKU MIYOSHI
     PENNSYLVANIA STATE UNIVERSITY:
          TZVETELIN IORDANOV, CHET SWALINA, JONATHAN SKONE,
          SHARON HAMMES-SCHIFFER
     WASEDA UNIVERSITY:
          MASATO KOBAYASHI, TOMOKO AKAMA, HIROMI NAKAI
     UNIVERSITY OF NEBRASKA:
          PEIFENG SU, DEJUN SI, YALI WANG, HUI LI

 EXECUTION OF GAMESS BEGUN Wed Sep 29 20:29:44 2010

            ECHO OF THE FIRST FEW INPUT CARDS -
 INPUT CARD> $CONTRL                                                                        
 INPUT CARD> SCFTYP=RHF                                                                     
 INPUT CARD> mult=1                                                                         
 INPUT CARD> cctyp=ccsd(tq)                                                                 
 INPUT CARD> $END                                                                           
 INPUT CARD> $SYSTEM TIMLIM=146  MEMORY=90000000 $END                                       
 INPUT CARD>                                                                                
 INPUT CARD>                                                                                
 INPUT CARD>! $BASIS GBASIS=sto NGAUSS=3 $END                                               
 INPUT CARD>                                                                                
 INPUT CARD> $BASIS  GBASIS=N31 NGAUSS=6 ndfunc=1                                           
 INPUT CARD> $END                                                                           
 INPUT CARD>                                                                                
 INPUT CARD> $scf dirscf=.t. $end                                                           
 INPUT CARD>                                                                                
 INPUT CARD> $DATA                                                                          
 INPUT CARD>   C6H6                                                                         
 INPUT CARD>dnh 6                                                                           
 INPUT CARD>                                                                                
 INPUT CARD>HYDROGEN   1.0    0.0     2.5    0.0                                            
 INPUT CARD>carbon     6.0    0.0     1.4    0.0                                            
 INPUT CARD>$END                                                                            
   90000000 WORDS OF MEMORY AVAILABLE

     BASIS OPTIONS
     -------------
     GBASIS=N31          IGAUSS=       6      POLAR=POPN31  
     NDFUNC=       1     NFFUNC=       0     DIFFSP=       F
     NPFUNC=       0      DIFFS=       F     BASNAM=        


     RUN TITLE
     ---------
    C6H6                                                                         

 THE POINT GROUP OF THE MOLECULE IS DNH     
 THE ORDER OF THE PRINCIPAL AXIS IS     6

 ATOM      ATOMIC                      COORDINATES (BOHR)
           CHARGE         X                   Y                   Z
 HYDROGEN    1.0    -4.0913767789        2.3621574847        0.0000000000
 HYDROGEN    1.0    -4.0913767789       -2.3621574847        0.0000000000
 HYDROGEN    1.0    -0.0000000000       -4.7243149693        0.0000000000
 HYDROGEN    1.0     4.0913767789       -2.3621574847        0.0000000000
 HYDROGEN    1.0     4.0913767789        2.3621574847        0.0000000000
 HYDROGEN    1.0     0.0000000000        4.7243149693        0.0000000000
 CARBON      6.0    -2.2911709962        1.3228081914        0.0000000000
 CARBON      6.0    -2.2911709962       -1.3228081914        0.0000000000
 CARBON      6.0    -0.0000000000       -2.6456163828        0.0000000000
 CARBON      6.0     2.2911709962       -1.3228081914        0.0000000000
 CARBON      6.0     2.2911709962        1.3228081914        0.0000000000
 CARBON      6.0     0.0000000000        2.6456163828        0.0000000000

          INTERNUCLEAR DISTANCES (ANGS.)
          ------------------------------

                1 HYDR       2 HYDR       3 HYDR       4 HYDR       5 HYDR  

   1 HYDR    0.0000000    2.5000000 *  4.3301270    5.0000000    4.3301270  
   2 HYDR    2.5000000 *  0.0000000    2.5000000 *  4.3301270    5.0000000  
   3 HYDR    4.3301270    2.5000000 *  0.0000000    2.5000000 *  4.3301270  
   4 HYDR    5.0000000    4.3301270    2.5000000 *  0.0000000    2.5000000 *
   5 HYDR    4.3301270    5.0000000    4.3301270    2.5000000 *  0.0000000  
   6 HYDR    2.5000000 *  4.3301270    5.0000000    4.3301270    2.5000000 *
   7 CARB    1.1000000 *  2.1702534 *  3.4219877    3.9000000    3.4219877  
   8 CARB    2.1702534 *  1.1000000 *  2.1702534 *  3.4219877    3.9000000  
   9 CARB    3.4219877    2.1702534 *  1.1000000 *  2.1702534 *  3.4219877  
  10 CARB    3.9000000    3.4219877    2.1702534 *  1.1000000 *  2.1702534 *
  11 CARB    3.4219877    3.9000000    3.4219877    2.1702534 *  1.1000000 *
  12 CARB    2.1702534 *  3.4219877    3.9000000    3.4219877    2.1702534 *

                6 HYDR       7 CARB       8 CARB       9 CARB      10 CARB  

   1 HYDR    2.5000000 *  1.1000000 *  2.1702534 *  3.4219877    3.9000000  
   2 HYDR    4.3301270    2.1702534 *  1.1000000 *  2.1702534 *  3.4219877  
   3 HYDR    5.0000000    3.4219877    2.1702534 *  1.1000000 *  2.1702534 *
   4 HYDR    4.3301270    3.9000000    3.4219877    2.1702534 *  1.1000000 *
   5 HYDR    2.5000000 *  3.4219877    3.9000000    3.4219877    2.1702534 *
   6 HYDR    0.0000000    2.1702534 *  3.4219877    3.9000000    3.4219877  
   7 CARB    2.1702534 *  0.0000000    1.4000000 *  2.4248711 *  2.8000000 *
   8 CARB    3.4219877    1.4000000 *  0.0000000    1.4000000 *  2.4248711 *
   9 CARB    3.9000000    2.4248711 *  1.4000000 *  0.0000000    1.4000000 *
  10 CARB    3.4219877    2.8000000 *  2.4248711 *  1.4000000 *  0.0000000  
  11 CARB    2.1702534 *  2.4248711 *  2.8000000 *  2.4248711 *  1.4000000 *
  12 CARB    1.1000000 *  1.4000000 *  2.4248711 *  2.8000000 *  2.4248711 *

               11 CARB      12 CARB  

   1 HYDR    3.4219877    2.1702534 *
   2 HYDR    3.9000000    3.4219877  
   3 HYDR    3.4219877    3.9000000  
   4 HYDR    2.1702534 *  3.4219877  
   5 HYDR    1.1000000 *  2.1702534 *
   6 HYDR    2.1702534 *  1.1000000 *
   7 CARB    2.4248711 *  1.4000000 *
   8 CARB    2.8000000 *  2.4248711 *
   9 CARB    2.4248711 *  2.8000000 *
  10 CARB    1.4000000 *  2.4248711 *
  11 CARB    0.0000000    1.4000000 *
  12 CARB    1.4000000 *  0.0000000  

  * ... LESS THAN  3.000


     ATOMIC BASIS SET
     ----------------
 THE CONTRACTED PRIMITIVE FUNCTIONS HAVE BEEN UNNORMALIZED
 THE CONTRACTED BASIS FUNCTIONS ARE NOW NORMALIZED TO UNITY

  SHELL TYPE  PRIMITIVE        EXPONENT          CONTRACTION COEFFICIENT(S)

 HYDROGEN  

     11   S       1            18.7311370    0.033494604338
     11   S       2             2.8253944    0.234726953484
     11   S       3             0.6401217    0.813757326146

     12   S       4             0.1612778    1.000000000000

 CARBON    

     33   S       5          3047.5248800    0.001834737132
     33   S       6           457.3695180    0.014037322813
     33   S       7           103.9486850    0.068842622264
     33   S       8            29.2101553    0.232184443216
     33   S       9             9.2866630    0.467941348435
     33   S      10             3.1639270    0.362311985337

     34   L      11             7.8682723   -0.119332419775    0.068999066591
     34   L      12             1.8812885   -0.160854151696    0.316423960957
     34   L      13             0.5442493    1.143456437840    0.744308290898

     35   L      14             0.1687145    1.000000000000    1.000000000000

     36   D      15             0.8000000    1.000000000000

 TOTAL NUMBER OF BASIS SET SHELLS             =   36
 NUMBER OF CARTESIAN GAUSSIAN BASIS FUNCTIONS =  102
 NUMBER OF ELECTRONS                          =   42
 CHARGE OF MOLECULE                           =    0
 SPIN MULTIPLICITY                            =    1
 NUMBER OF OCCUPIED ORBITALS (ALPHA)          =   21
 NUMBER OF OCCUPIED ORBITALS (BETA )          =   21
 TOTAL NUMBER OF ATOMS                        =   12
 THE NUCLEAR REPULSION ENERGY IS      202.4071099017

     $NEO OPTIONS
     ------------
     NUNIQN=       0     BASNUC=DZSNB        NEOSCF=NONE    
     NEOCI =NONE         NUMULT=       2     NUCST =       1
     NAUXNB=       0     VNUCEX=       F     NUCOPT=       F
     NTAUXB=       0     NEOHSS=       F     HSSINI=READH   
     HSSUPD=POWELLUP     DIRNUC=       F     SYMNUC=       F
     QMTOLN= 0.0E+00     USRDEX=       F
     POSNEO=       F     POSPRP=       F
     NEONCI=       F     LOCORB=       0

     $CONTRL OPTIONS
     ---------------
 SCFTYP=RHF          RUNTYP=ENERGY       EXETYP=RUN     
 MPLEVL=       0     CITYP =NONE         CCTYP =CCSD(TQ)     VBTYP =NONE    
 DFTTYP=NONE         TDDFT =NONE    
 MULT  =       1     ICHARG=       0     NZVAR =       0     COORD =UNIQUE  
 PP    =NONE         RELWFN=NONE         LOCAL =NONE         NUMGRD=       F
 ISPHER=      -1     NOSYM =       0     MAXIT =      30     UNITS =ANGS    
 PLTORB=       F     MOLPLT=       F     AIMPAC=       F     FRIEND=        
 NPRINT=       7     IREST =       0     GEOM  =INPUT   
 NORMF =       0     NORMP =       0     ITOL  =      20     ICUT  =       9
 INTTYP=BEST         GRDTYP=BEST         QMTTOL= 1.0E-06

     $SYSTEM OPTIONS
     ---------------
  REPLICATED MEMORY=    90000000 WORDS (ON EVERY NODE).
 DISTRIBUTED MEMDDI=           0 MILLION WORDS IN AGGREGATE,
 MEMDDI DISTRIBUTED OVER   1 PROCESSORS IS           0 WORDS/PROCESSOR.
 TOTAL MEMORY REQUESTED ON EACH PROCESSOR=    90000000 WORDS.
 TIMLIM=         146.00 MINUTES, OR       0.1 DAYS.
 PARALL= F  BALTYP=  DLB     KDIAG=    0  COREFL= F
 MXSEQ2=     300 MXSEQ3=     150

          ----------------
          PROPERTIES INPUT
          ----------------

     MOMENTS            FIELD           POTENTIAL          DENSITY
 IEMOM =       1   IEFLD =       0   IEPOT =       0   IEDEN =       0
 WHERE =COMASS     WHERE =NUCLEI     WHERE =NUCLEI     WHERE =NUCLEI  
 OUTPUT=BOTH       OUTPUT=BOTH       OUTPUT=BOTH       OUTPUT=BOTH    
 IEMINT=       0   IEFINT=       0                     IEDINT=       0
                                                       MORB  =       0
          EXTRAPOLATION IN EFFECT
          DIIS IN EFFECT
 ORBITAL PRINTING OPTION: NPREO=     1   102     2     1

     -------------------------------
     INTEGRAL TRANSFORMATION OPTIONS
     -------------------------------
     NWORD  =         0     CUTOFF = 1.0E-09
     MPTRAN =         0     DIRTRF =       T
     AOINTS =DUP     

          ----------------------
          INTEGRAL INPUT OPTIONS
          ----------------------
 NOPK  =       1 NORDER=       0 SCHWRZ=       T

     ------------------------------------------
     THE POINT GROUP IS DNH, NAXIS= 6, ORDER=24
     ------------------------------------------

     DIMENSIONS OF THE SYMMETRY SUBSPACES ARE
 A1G =   10     A1U =    1     B1U =    3     B1G =    3     A2G =    3
 A2U =    3     B2U =   10     B2G =    1     E1G =    4     E1U =   13
 E2U =    4     E2G =   13

 ..... DONE SETTING UP THE RUN .....
 STEP CPU TIME =     0.05 TOTAL CPU TIME =        0.0 (    0.0 MIN)
 TOTAL WALL CLOCK TIME=        0.1 SECONDS, CPU UTILIZATION IS  74.19%

          ********************
          1 ELECTRON INTEGRALS
          ********************
 ...... END OF ONE-ELECTRON INTEGRALS ......
 STEP CPU TIME =     0.03 TOTAL CPU TIME =        0.1 (    0.0 MIN)
 TOTAL WALL CLOCK TIME=        0.1 SECONDS, CPU UTILIZATION IS  83.87%

          -------------
          GUESS OPTIONS
          -------------
          GUESS =HUCKEL            NORB  =       0          NORDER=       0
          MIX   =       F          PRTMO =       F          PUNMO =       F
          TOLZ  = 1.0E-08          TOLE  = 1.0E-05
          SYMDEN=       F          PURIFY=       F

 INITIAL GUESS ORBITALS GENERATED BY HUCKEL   ROUTINE.
 HUCKEL GUESS REQUIRES     89640 WORDS.

 SYMMETRIES FOR INITIAL GUESS ORBITALS FOLLOW.   BOTH SET(S).
    21 ORBITALS ARE OCCUPIED (    6 CORE ORBITALS).
     7=?A1G     8=?E1U     9=?E1U    10=?E2G    11=?E2G    12=?A1G    13=?B2U
    14=A2U     15=?E1U    16=?E1U    17=?B1U    18=E1G     19=E1G     20=?E2G
    21=?E2G    22=E2U     23=E2U     24=B1G     25=E1U     26=E1U     27=A1G 
    28=A1G     29=?A1G    30=A1G     31=?A1G
 ...... END OF INITIAL ORBITAL SELECTION ......
 STEP CPU TIME =     0.17 TOTAL CPU TIME =        0.3 (    0.0 MIN)
 TOTAL WALL CLOCK TIME=        0.3 SECONDS, CPU UTILIZATION IS  94.34%

                    ----------------------
                    AO INTEGRAL TECHNOLOGY
                    ----------------------
     S,P,L SHELL ROTATED AXIS INTEGRALS, REPROGRAMMED BY
        KAZUYA ISHIMURA (IMS) AND JOSE SIERRA (SYNSTAR).
     S,P,D,L SHELL ROTATED AXIS INTEGRALS PROGRAMMED BY
        KAZUYA ISHIMURA (INSTITUTE FOR MOLECULAR SCIENCE).
     S,P,D,F,G SHELL TO TOTAL QUARTET ANGULAR MOMENTUM SUM 5,
        ERIC PROGRAM BY GRAHAM FLETCHER (ELORET AND NASA ADVANCED
        SUPERCOMPUTING DIVISION, AMES RESEARCH CENTER).
     S,P,D,F,G,L SHELL GENERAL RYS QUADRATURE PROGRAMMED BY
        MICHEL DUPUIS (PACIFIC NORTHWEST NATIONAL LABORATORY).

          --------------------
          2 ELECTRON INTEGRALS
          --------------------

 DIRECT SCF METHOD SKIPS INTEGRAL STORAGE ON DISK.
 DIRECT TRANSFORMATION SKIPS AO INTEGRAL STORAGE ON DISK.
  ...... END OF TWO-ELECTRON INTEGRALS .....
 STEP CPU TIME =     0.16 TOTAL CPU TIME =        0.4 (    0.0 MIN)
 TOTAL WALL CLOCK TIME=        0.4 SECONDS, CPU UTILIZATION IS  92.91%

          --------------------------
                 RHF SCF CALCULATION
          --------------------------

     NUCLEAR ENERGY =       202.4071099017
     MAXIT =   30     NPUNCH=    2
     EXTRAP=T  DAMP=F  SHIFT=F  RSTRCT=F  DIIS=T  DEM=F  SOSCF=F
     DENSITY MATRIX CONV=  2.00E-06
     MEMORY REQUIRED FOR RHF ITERS=    121649 WORDS.

 DIRECT SCF CALCULATION, SCHWRZ=T   FDIFF=T,  DIRTHR=  0.00E+00 NITDIR=10
 SCHWARZ INEQUALITY OVERHEAD:      5250 INTEGRALS, T=        0.02

                                                                                   NONZERO     BLOCKS
 ITER EX DEM     TOTAL ENERGY        E CHANGE  DENSITY CHANGE    DIIS ERROR      INTEGRALS    SKIPPED
   1  0  0     -230.1943838373  -230.1943838373   0.179539426   0.539187731         630321       2193
          * * *   INITIATING DIIS PROCEDURE   * * *
   2  1  0     -230.6683372753    -0.4739534380   0.053204221   0.107068425         630070       2369
   3  2  0     -230.6953507654    -0.0270134901   0.012921264   0.041116600         628634       2603
   4  3  0     -230.6990943009    -0.0037435355   0.005898636   0.010271958         626906       2861
   5  4  0     -230.6994376646    -0.0003433637   0.000479170   0.000983656         624491       3081
   6  5  0     -230.6994410092    -0.0000033446   0.000061419   0.000079227         614675       3553
   7  6  0     -230.6994410307    -0.0000000215   0.000004976   0.000004998         595408       4603
   8  7  0     -230.6994410310    -0.0000000003   0.000000740   0.000000833         560146       6304
   9  8  0     -230.6994410310     0.0000000000   0.000000053   0.000000076         534273       7731

 RHF HAS CONVERGED, NOW COMPUTING EXACT TOTAL FOCK MATRIX
 FOR USE DURING THE COUPLED CLUSTER CALCULATION THAT FOLLOWS.

          -----------------
          DENSITY CONVERGED
          -----------------
     TIME TO FORM FOCK OPERATORS=       3.0 SECONDS (       0.3 SEC/ITER)
     FOCK TIME ON FIRST ITERATION=       0.4, LAST ITERATION=       0.3
     TIME TO SOLVE SCF EQUATIONS=       0.2 SECONDS (       0.0 SEC/ITER)

 FINAL RHF ENERGY IS     -230.6994410310 AFTER   9 ITERATIONS

          ------------
          EIGENVECTORS
          ------------

                      1          2          3          4          5
                  -11.2375   -11.2370   -11.2370   -11.2358   -11.2358
                     A1G        E1U        E1U        E2G        E2G 
    1  H  1  S   -0.000105   0.000110   0.000063   0.000037   0.000063
    2  H  1  S    0.000815  -0.000778  -0.000449  -0.000414  -0.000718
    3  H  2  S   -0.000105   0.000110  -0.000063   0.000037  -0.000063
    4  H  2  S    0.000815  -0.000778   0.000449  -0.000414   0.000718
    5  H  3  S   -0.000105  -0.000000  -0.000127  -0.000073  -0.000000
    6  H  3  S    0.000815  -0.000000   0.000898   0.000829  -0.000000
    7  H  4  S   -0.000105  -0.000110  -0.000063   0.000037   0.000063
    8  H  4  S    0.000815   0.000778   0.000449  -0.000414  -0.000718
    9  H  5  S   -0.000105  -0.000110   0.000063   0.000037  -0.000063
   10  H  5  S    0.000815   0.000778  -0.000449  -0.000414   0.000718
   11  H  6  S   -0.000105  -0.000000   0.000127  -0.000073  -0.000000
   12  H  6  S    0.000815  -0.000000  -0.000898   0.000829  -0.000000
   13  C  7  S    0.406276  -0.497717  -0.287357  -0.287499  -0.497964
   14  C  7  S    0.011005  -0.013763  -0.007946  -0.008002  -0.013860
   15  C  7  X   -0.000031  -0.000106   0.000020  -0.000141  -0.000125
   16  C  7  Y    0.000018  -0.000020   0.000129  -0.000038   0.000141
   17  C  7  Z   -0.000000  -0.000000   0.000000   0.000000  -0.000000
   18  C  7  S   -0.002170   0.004269   0.002464   0.004817   0.008344
   19  C  7  X    0.000277   0.000482  -0.000429   0.001238   0.000932
   20  C  7  Y   -0.000160   0.000429  -0.000978   0.000498  -0.001238
   21  C  7  Z   -0.000000  -0.000000   0.000000   0.000000  -0.000000
   22  C  7 XX   -0.000909   0.001039   0.000635   0.000323   0.000775
   23  C  7 YY   -0.000932   0.001044   0.000567   0.000428   0.000527
   24  C  7 ZZ   -0.001067   0.001194   0.000689   0.000645   0.001117
   25  C  7 XY   -0.000023  -0.000036   0.000003  -0.000143  -0.000105
   26  C  7 XZ   -0.000000  -0.000000   0.000000   0.000000  -0.000000
   27  C  7 YZ   -0.000000  -0.000000   0.000000   0.000000  -0.000000
   28  C  8  S    0.406276  -0.497717   0.287357  -0.287499   0.497964
   29  C  8  S    0.011005  -0.013763   0.007946  -0.008002   0.013860
   30  C  8  X   -0.000031  -0.000106  -0.000020  -0.000141   0.000125
   31  C  8  Y   -0.000018   0.000020   0.000129   0.000038   0.000141
   32  C  8  Z   -0.000000  -0.000000   0.000000   0.000000  -0.000000
   33  C  8  S   -0.002170   0.004269  -0.002464   0.004817  -0.008344
   34  C  8  X    0.000277   0.000482   0.000429   0.001238  -0.000932
   35  C  8  Y    0.000160  -0.000429  -0.000978  -0.000498  -0.001238
   36  C  8  Z   -0.000000  -0.000000   0.000000   0.000000  -0.000000
   37  C  8 XX   -0.000909   0.001039  -0.000635   0.000323  -0.000775
   38  C  8 YY   -0.000932   0.001044  -0.000567   0.000428  -0.000527
   39  C  8 ZZ   -0.001067   0.001194  -0.000689   0.000645  -0.001117
   40  C  8 XY    0.000023   0.000036   0.000003   0.000143  -0.000105
   41  C  8 XZ   -0.000000  -0.000000   0.000000   0.000000  -0.000000
   42  C  8 YZ   -0.000000  -0.000000   0.000000   0.000000  -0.000000
   43  C  9  S    0.406276  -0.000000   0.574714   0.574999  -0.000000
   44  C  9  S    0.011005  -0.000000   0.015892   0.016004  -0.000000
   45  C  9  X   -0.000000  -0.000141   0.000000   0.000000   0.000119
   46  C  9  Y   -0.000035  -0.000000   0.000095   0.000207  -0.000000
   47  C  9  Z   -0.000000  -0.000000   0.000000   0.000000  -0.000000
   48  C  9  S   -0.002170  -0.000000  -0.004929  -0.009634  -0.000000
   49  C  9  X   -0.000000   0.001226   0.000000   0.000000  -0.001213
   50  C  9  Y    0.000320  -0.000000  -0.000234  -0.001647  -0.000000
   51  C  9  Z   -0.000000  -0.000000   0.000000   0.000000  -0.000000
   52  C  9 XX   -0.000943  -0.000000  -0.001173  -0.000589  -0.000000
   53  C  9 YY   -0.000898  -0.000000  -0.001232  -0.000914  -0.000000
   54  C  9 ZZ   -0.001067  -0.000000  -0.001378  -0.001290  -0.000000
   55  C  9 XY   -0.000000  -0.000041   0.000000   0.000000   0.000143
   56  C  9 XZ   -0.000000  -0.000000   0.000000   0.000000  -0.000000
   57  C  9 YZ   -0.000000  -0.000000   0.000000   0.000000  -0.000000
   58  C 10  S    0.406276   0.497717   0.287357  -0.287499  -0.497964
   59  C 10  S    0.011005   0.013763   0.007946  -0.008002  -0.013860
   60  C 10  X    0.000031  -0.000106   0.000020   0.000141   0.000125
   61  C 10  Y   -0.000018  -0.000020   0.000129   0.000038  -0.000141
   62  C 10  Z   -0.000000  -0.000000   0.000000   0.000000  -0.000000
   63  C 10  S   -0.002170  -0.004269  -0.002464   0.004817   0.008344
   64  C 10  X   -0.000277   0.000482  -0.000429  -0.001238  -0.000932
   65  C 10  Y    0.000160   0.000429  -0.000978  -0.000498   0.001238
   66  C 10  Z   -0.000000  -0.000000   0.000000   0.000000  -0.000000
   67  C 10 XX   -0.000909  -0.001039  -0.000635   0.000323   0.000775
   68  C 10 YY   -0.000932  -0.001044  -0.000567   0.000428   0.000527
   69  C 10 ZZ   -0.001067  -0.001194  -0.000689   0.000645   0.001117
   70  C 10 XY   -0.000023   0.000036  -0.000003  -0.000143  -0.000105
   71  C 10 XZ   -0.000000  -0.000000   0.000000   0.000000  -0.000000
   72  C 10 YZ   -0.000000  -0.000000   0.000000   0.000000  -0.000000
   73  C 11  S    0.406276   0.497717  -0.287357  -0.287499   0.497964
   74  C 11  S    0.011005   0.013763  -0.007946  -0.008002   0.013860
   75  C 11  X    0.000031  -0.000106  -0.000020   0.000141  -0.000125
   76  C 11  Y    0.000018   0.000020   0.000129  -0.000038  -0.000141
   77  C 11  Z   -0.000000  -0.000000   0.000000   0.000000  -0.000000
   78  C 11  S   -0.002170  -0.004269   0.002464   0.004817  -0.008344
   79  C 11  X   -0.000277   0.000482   0.000429  -0.001238   0.000932
   80  C 11  Y   -0.000160  -0.000429  -0.000978   0.000498   0.001238
   81  C 11  Z   -0.000000  -0.000000   0.000000   0.000000  -0.000000
   82  C 11 XX   -0.000909  -0.001039   0.000635   0.000323  -0.000775
   83  C 11 YY   -0.000932  -0.001044   0.000567   0.000428  -0.000527
   84  C 11 ZZ   -0.001067  -0.001194   0.000689   0.000645  -0.001117
   85  C 11 XY    0.000023  -0.000036  -0.000003   0.000143  -0.000105
   86  C 11 XZ   -0.000000  -0.000000   0.000000   0.000000  -0.000000
   87  C 11 YZ   -0.000000  -0.000000   0.000000   0.000000  -0.000000
   88  C 12  S    0.406276  -0.000000  -0.574714   0.574999  -0.000000
   89  C 12  S    0.011005  -0.000000  -0.015892   0.016004  -0.000000
   90  C 12  X   -0.000000  -0.000141   0.000000   0.000000  -0.000119
   91  C 12  Y    0.000035  -0.000000   0.000095  -0.000207  -0.000000
   92  C 12  Z   -0.000000  -0.000000   0.000000   0.000000  -0.000000
   93  C 12  S   -0.002170  -0.000000   0.004929  -0.009634  -0.000000
   94  C 12  X   -0.000000   0.001226   0.000000   0.000000   0.001213
   95  C 12  Y   -0.000320  -0.000000  -0.000234   0.001647  -0.000000
   96  C 12  Z   -0.000000  -0.000000   0.000000   0.000000  -0.000000
   97  C 12 XX   -0.000943  -0.000000   0.001173  -0.000589  -0.000000
   98  C 12 YY   -0.000898  -0.000000   0.001232  -0.000914  -0.000000
   99  C 12 ZZ   -0.001067  -0.000000   0.001378  -0.001290  -0.000000
  100  C 12 XY   -0.000000   0.000041   0.000000   0.000000   0.000143
  101  C 12 XZ   -0.000000  -0.000000   0.000000   0.000000  -0.000000
  102  C 12 YZ   -0.000000  -0.000000   0.000000   0.000000  -0.000000

                      6          7          8          9         10
                  -11.2352    -1.1398    -1.0053    -1.0053    -0.8140
                     B2U        A1G        E1U        E1U        E2G 
    1  H  1  S   -0.000134   0.034380  -0.064497  -0.037237  -0.055294
    2  H  1  S   -0.000179   0.003825  -0.012986  -0.007498  -0.017620
    3  H  2  S    0.000134   0.034380  -0.064497   0.037237  -0.055294
    4  H  2  S    0.000179   0.003825  -0.012986   0.007498  -0.017620
    5  H  3  S   -0.000134   0.034380   0.000000   0.074474   0.110589
    6  H  3  S   -0.000179   0.003825   0.000000   0.014995   0.035241
    7  H  4  S    0.000134   0.034380   0.064497   0.037237  -0.055294
    8  H  4  S    0.000179   0.003825   0.012986   0.007498  -0.017620
    9  H  5  S   -0.000134   0.034380   0.064497  -0.037237  -0.055294
   10  H  5  S   -0.000179   0.003825   0.012986  -0.007498  -0.017620
   11  H  6  S    0.000134   0.034380   0.000000  -0.074474   0.110589
   12  H  6  S    0.000179   0.003825   0.000000  -0.014995   0.035241
   13  C  7  S    0.406756  -0.092078   0.110807   0.063974   0.049999
   14  C  7  S    0.011584   0.175145  -0.214041  -0.123577  -0.099955
   15  C  7  X    0.000185   0.051763   0.007058  -0.062195   0.116317
   16  C  7  Y   -0.000107  -0.029885   0.062195  -0.078875   0.139271
   17  C  7  Z   -0.000000  -0.000000   0.000000  -0.000000   0.000000
   18  C  7  S   -0.014920   0.112526  -0.168187  -0.097103  -0.085353
   19  C  7  X   -0.004642   0.005951   0.007428  -0.005197   0.047817
   20  C  7  Y    0.002680  -0.003436   0.005197  -0.013429   0.025059
   21  C  7  Z   -0.000000  -0.000000   0.000000  -0.000000   0.000000
   22  C  7 XX   -0.000330   0.006194  -0.002449  -0.011723   0.004053
   23  C  7 YY   -0.000183   0.007682  -0.012682   0.002987  -0.009847
   24  C  7 ZZ   -0.000760  -0.008308   0.008803   0.005082   0.003539
   25  C  7 XY    0.000147   0.001488   0.001670  -0.005908   0.007814
   26  C  7 XZ   -0.000000  -0.000000   0.000000  -0.000000   0.000000
   27  C  7 YZ   -0.000000  -0.000000   0.000000  -0.000000   0.000000
   28  C  8  S   -0.406756  -0.092078   0.110807  -0.063974   0.049999
   29  C  8  S   -0.011584   0.175145  -0.214041   0.123577  -0.099955
   30  C  8  X   -0.000185   0.051763   0.007058   0.062195   0.116317
   31  C  8  Y   -0.000107   0.029885  -0.062195  -0.078875  -0.139271
   32  C  8  Z   -0.000000  -0.000000   0.000000  -0.000000   0.000000
   33  C  8  S    0.014920   0.112526  -0.168187   0.097103  -0.085353
   34  C  8  X    0.004642   0.005951   0.007428   0.005197   0.047817
   35  C  8  Y    0.002680   0.003436  -0.005197  -0.013429  -0.025059
   36  C  8  Z   -0.000000  -0.000000   0.000000  -0.000000   0.000000
   37  C  8 XX    0.000330   0.006194  -0.002449   0.011723   0.004053
   38  C  8 YY    0.000183   0.007682  -0.012682  -0.002987  -0.009847
   39  C  8 ZZ    0.000760  -0.008308   0.008803  -0.005082   0.003539
   40  C  8 XY    0.000147  -0.001488  -0.001670  -0.005908  -0.007814
   41  C  8 XZ   -0.000000  -0.000000   0.000000  -0.000000   0.000000
   42  C  8 YZ   -0.000000  -0.000000   0.000000  -0.000000   0.000000
   43  C  9  S    0.406756  -0.092078   0.000000  -0.127949  -0.099999
   44  C  9  S    0.011584   0.175145   0.000000   0.247153   0.199909
   45  C  9  X   -0.000000  -0.000000   0.114783  -0.000000   0.000000
   46  C  9  Y    0.000214   0.059771   0.000000   0.028850  -0.062196
   47  C  9  Z   -0.000000  -0.000000   0.000000  -0.000000   0.000000
   48  C  9  S   -0.014920   0.112526   0.000000   0.194206   0.170707
   49  C  9  X   -0.000000  -0.000000   0.016430  -0.000000   0.000000
   50  C  9  Y   -0.005361   0.006871   0.000000  -0.004427  -0.057763
   51  C  9  Z   -0.000000  -0.000000   0.000000  -0.000000   0.000000
   52  C  9 XX   -0.000110   0.008426   0.000000   0.010243   0.001024
   53  C  9 YY   -0.000404   0.005450   0.000000   0.007228   0.010566
   54  C  9 ZZ   -0.000760  -0.008308   0.000000  -0.010165  -0.007077
   55  C  9 XY   -0.000000  -0.000000   0.011904  -0.000000   0.000000
   56  C  9 XZ   -0.000000  -0.000000   0.000000  -0.000000   0.000000
   57  C  9 YZ   -0.000000  -0.000000   0.000000  -0.000000   0.000000
   58  C 10  S   -0.406756  -0.092078  -0.110807  -0.063974   0.049999
   59  C 10  S   -0.011584   0.175145   0.214041   0.123577  -0.099955
   60  C 10  X    0.000185  -0.051763   0.007058  -0.062195  -0.116317
   61  C 10  Y   -0.000107   0.029885   0.062195  -0.078875  -0.139271
   62  C 10  Z   -0.000000  -0.000000   0.000000  -0.000000   0.000000
   63  C 10  S    0.014920   0.112526   0.168187   0.097103  -0.085353
   64  C 10  X   -0.004642  -0.005951   0.007428  -0.005197  -0.047817
   65  C 10  Y    0.002680   0.003436   0.005197  -0.013429  -0.025059
   66  C 10  Z   -0.000000  -0.000000   0.000000  -0.000000   0.000000
   67  C 10 XX    0.000330   0.006194   0.002449   0.011723   0.004053
   68  C 10 YY    0.000183   0.007682   0.012682  -0.002987  -0.009847
   69  C 10 ZZ    0.000760  -0.008308  -0.008803  -0.005082   0.003539
   70  C 10 XY   -0.000147   0.001488  -0.001670   0.005908   0.007814
   71  C 10 XZ   -0.000000  -0.000000   0.000000  -0.000000   0.000000
   72  C 10 YZ   -0.000000  -0.000000   0.000000  -0.000000   0.000000
   73  C 11  S    0.406756  -0.092078  -0.110807   0.063974   0.049999
   74  C 11  S    0.011584   0.175145   0.214041  -0.123577  -0.099955
   75  C 11  X   -0.000185  -0.051763   0.007058   0.062195  -0.116317
   76  C 11  Y   -0.000107  -0.029885  -0.062195  -0.078875   0.139271
   77  C 11  Z   -0.000000  -0.000000   0.000000  -0.000000   0.000000
   78  C 11  S   -0.014920   0.112526   0.168187  -0.097103  -0.085353
   79  C 11  X    0.004642  -0.005951   0.007428   0.005197  -0.047817
   80  C 11  Y    0.002680  -0.003436  -0.005197  -0.013429   0.025059
   81  C 11  Z   -0.000000  -0.000000   0.000000  -0.000000   0.000000
   82  C 11 XX   -0.000330   0.006194   0.002449  -0.011723   0.004053
   83  C 11 YY   -0.000183   0.007682   0.012682   0.002987  -0.009847
   84  C 11 ZZ   -0.000760  -0.008308  -0.008803   0.005082   0.003539
   85  C 11 XY   -0.000147  -0.001488   0.001670   0.005908  -0.007814
   86  C 11 XZ   -0.000000  -0.000000   0.000000  -0.000000   0.000000
   87  C 11 YZ   -0.000000  -0.000000   0.000000  -0.000000   0.000000
   88  C 12  S   -0.406756  -0.092078   0.000000   0.127949  -0.099999
   89  C 12  S   -0.011584   0.175145   0.000000  -0.247153   0.199909
   90  C 12  X   -0.000000  -0.000000   0.114783  -0.000000   0.000000
   91  C 12  Y    0.000214  -0.059771   0.000000   0.028850   0.062196
   92  C 12  Z   -0.000000  -0.000000   0.000000  -0.000000   0.000000
   93  C 12  S    0.014920   0.112526   0.000000  -0.194206   0.170707
   94  C 12  X   -0.000000  -0.000000   0.016430  -0.000000   0.000000
   95  C 12  Y   -0.005361  -0.006871   0.000000  -0.004427   0.057763
   96  C 12  Z   -0.000000  -0.000000   0.000000  -0.000000   0.000000
   97  C 12 XX    0.000110   0.008426   0.000000  -0.010243   0.001024
   98  C 12 YY    0.000404   0.005450   0.000000  -0.007228   0.010566
   99  C 12 ZZ    0.000760  -0.008308   0.000000   0.010165  -0.007077
  100  C 12 XY   -0.000000  -0.000000  -0.011904  -0.000000   0.000000
  101  C 12 XZ   -0.000000  -0.000000   0.000000  -0.000000   0.000000
  102  C 12 YZ   -0.000000  -0.000000   0.000000  -0.000000   0.000000

                     11         12         13         14         15
                   -0.8140    -0.6969    -0.6340    -0.6096    -0.5783
                     E2G        A1G        B2U        B1U        E1U 
    1  H  1  S   -0.095773  -0.110609   0.135191   0.000000  -0.142295
    2  H  1  S   -0.030519  -0.067562   0.067014   0.000000  -0.111474
    3  H  2  S    0.095773  -0.110609  -0.135191   0.000000  -0.142295
    4  H  2  S    0.030519  -0.067562  -0.067014   0.000000  -0.111474
    5  H  3  S   -0.000000  -0.110609   0.135191   0.000000  -0.000000
    6  H  3  S   -0.000000  -0.067562   0.067014   0.000000  -0.000000
    7  H  4  S   -0.095773  -0.110609  -0.135191   0.000000   0.142295
    8  H  4  S   -0.030519  -0.067562  -0.067014   0.000000   0.111474
    9  H  5  S    0.095773  -0.110609   0.135191   0.000000   0.142295
   10  H  5  S    0.030519  -0.067562   0.067014   0.000000   0.111474
   11  H  6  S   -0.000000  -0.110609  -0.135191   0.000000  -0.000000
   12  H  6  S   -0.000000  -0.067562  -0.067014   0.000000  -0.000000
   13  C  7  S    0.086602   0.007763  -0.055895   0.000000  -0.017147
   14  C  7  S   -0.173127  -0.013189   0.115334   0.000000   0.038815
   15  C  7  X   -0.004960   0.167062  -0.112879  -0.135896   0.197548
   16  C  7  Y   -0.116317  -0.096454   0.065171  -0.235378  -0.163067
   17  C  7  Z   -0.000000   0.000000  -0.000000   0.000000  -0.000000
   18  C  7  S   -0.147836  -0.034625   0.056735   0.000000   0.023148
   19  C  7  X    0.030156   0.062583  -0.115343  -0.048189   0.090890
   20  C  7  Y   -0.047817  -0.036132   0.066594  -0.083466  -0.069968
   21  C  7  Z   -0.000000   0.000000  -0.000000   0.000000  -0.000000
   22  C  7 XX   -0.011785  -0.004009   0.010887  -0.007432  -0.014206
   23  C  7 YY    0.001749  -0.001226  -0.004646   0.007432   0.007513
   24  C  7 ZZ    0.006129   0.000567  -0.003364   0.000000  -0.000099
   25  C  7 XY    0.000998   0.002783  -0.015533  -0.004954   0.007213
   26  C  7 XZ   -0.000000   0.000000  -0.000000   0.000000  -0.000000
   27  C  7 YZ   -0.000000   0.000000  -0.000000   0.000000  -0.000000
   28  C  8  S   -0.086602   0.007763   0.055895   0.000000  -0.017147
   29  C  8  S    0.173127  -0.013189  -0.115334   0.000000   0.038815
   30  C  8  X    0.004960   0.167062   0.112879  -0.135896   0.197548
   31  C  8  Y   -0.116317   0.096454   0.065171   0.235378   0.163067
   32  C  8  Z   -0.000000   0.000000  -0.000000   0.000000  -0.000000
   33  C  8  S    0.147836  -0.034625  -0.056735   0.000000   0.023148
   34  C  8  X   -0.030156   0.062583   0.115343  -0.048189   0.090890
   35  C  8  Y   -0.047817   0.036132   0.066594   0.083466   0.069968
   36  C  8  Z   -0.000000   0.000000  -0.000000   0.000000  -0.000000
   37  C  8 XX    0.011785  -0.004009  -0.010887  -0.007432  -0.014206
   38  C  8 YY   -0.001749  -0.001226   0.004646   0.007432   0.007513
   39  C  8 ZZ   -0.006129   0.000567   0.003364   0.000000  -0.000099
   40  C  8 XY    0.000998  -0.002783  -0.015533   0.004954  -0.007213
   41  C  8 XZ   -0.000000   0.000000  -0.000000   0.000000  -0.000000
   42  C  8 YZ   -0.000000   0.000000  -0.000000   0.000000  -0.000000
   43  C  9  S   -0.000000   0.007763  -0.055895   0.000000  -0.000000
   44  C  9  S   -0.000000  -0.013189   0.115334   0.000000  -0.000000
   45  C  9  X   -0.206426   0.000000  -0.000000   0.271791  -0.084892
   46  C  9  Y   -0.000000   0.192907  -0.130342   0.000000  -0.000000
   47  C  9  Z   -0.000000   0.000000  -0.000000   0.000000  -0.000000
   48  C  9  S   -0.000000  -0.034625   0.056735   0.000000  -0.000000
   49  C  9  X   -0.052666   0.000000  -0.000000   0.096378  -0.030298
   50  C  9  Y   -0.000000   0.072264  -0.133187   0.000000  -0.000000
   51  C  9  Z   -0.000000   0.000000  -0.000000   0.000000  -0.000000
   52  C  9 XX   -0.000000   0.000166  -0.012413   0.000000  -0.000000
   53  C  9 YY   -0.000000  -0.005400   0.018654   0.000000  -0.000000
   54  C  9 ZZ   -0.000000   0.000567  -0.003364   0.000000  -0.000000
   55  C  9 XY   -0.012536   0.000000  -0.000000   0.009909  -0.014507
   56  C  9 XZ   -0.000000   0.000000  -0.000000   0.000000  -0.000000
   57  C  9 YZ   -0.000000   0.000000  -0.000000   0.000000  -0.000000
   58  C 10  S    0.086602   0.007763   0.055895   0.000000   0.017147
   59  C 10  S   -0.173127  -0.013189  -0.115334   0.000000  -0.038815
   60  C 10  X    0.004960  -0.167062  -0.112879  -0.135896   0.197548
   61  C 10  Y    0.116317   0.096454   0.065171  -0.235378  -0.163067
   62  C 10  Z   -0.000000   0.000000  -0.000000   0.000000  -0.000000
   63  C 10  S   -0.147836  -0.034625  -0.056735   0.000000  -0.023148
   64  C 10  X   -0.030156  -0.062583  -0.115343  -0.048189   0.090890
   65  C 10  Y    0.047817   0.036132   0.066594  -0.083466  -0.069968
   66  C 10  Z   -0.000000   0.000000  -0.000000   0.000000  -0.000000
   67  C 10 XX   -0.011785  -0.004009  -0.010887   0.007432   0.014206
   68  C 10 YY    0.001749  -0.001226   0.004646  -0.007432  -0.007513
   69  C 10 ZZ    0.006129   0.000567   0.003364   0.000000   0.000099
   70  C 10 XY    0.000998   0.002783   0.015533   0.004954  -0.007213
   71  C 10 XZ   -0.000000   0.000000  -0.000000   0.000000  -0.000000
   72  C 10 YZ   -0.000000   0.000000  -0.000000   0.000000  -0.000000
   73  C 11  S   -0.086602   0.007763  -0.055895   0.000000   0.017147
   74  C 11  S    0.173127  -0.013189   0.115334   0.000000  -0.038815
   75  C 11  X   -0.004960  -0.167062   0.112879  -0.135896   0.197548
   76  C 11  Y    0.116317  -0.096454   0.065171   0.235378   0.163067
   77  C 11  Z   -0.000000   0.000000  -0.000000   0.000000  -0.000000
   78  C 11  S    0.147836  -0.034625   0.056735   0.000000  -0.023148
   79  C 11  X    0.030156  -0.062583   0.115343  -0.048189   0.090890
   80  C 11  Y    0.047817  -0.036132   0.066594   0.083466   0.069968
   81  C 11  Z   -0.000000   0.000000  -0.000000   0.000000  -0.000000
   82  C 11 XX    0.011785  -0.004009   0.010887   0.007432   0.014206
   83  C 11 YY   -0.001749  -0.001226  -0.004646  -0.007432  -0.007513
   84  C 11 ZZ   -0.006129   0.000567  -0.003364   0.000000   0.000099
   85  C 11 XY    0.000998  -0.002783   0.015533  -0.004954   0.007213
   86  C 11 XZ   -0.000000   0.000000  -0.000000   0.000000  -0.000000
   87  C 11 YZ   -0.000000   0.000000  -0.000000   0.000000  -0.000000
   88  C 12  S   -0.000000   0.007763   0.055895   0.000000  -0.000000
   89  C 12  S   -0.000000  -0.013189  -0.115334   0.000000  -0.000000
   90  C 12  X    0.206426   0.000000  -0.000000   0.271791  -0.084892
   91  C 12  Y   -0.000000  -0.192907  -0.130342   0.000000  -0.000000
   92  C 12  Z   -0.000000   0.000000  -0.000000   0.000000  -0.000000
   93  C 12  S   -0.000000  -0.034625  -0.056735   0.000000  -0.000000
   94  C 12  X    0.052666   0.000000  -0.000000   0.096378  -0.030298
   95  C 12  Y   -0.000000  -0.072264  -0.133187   0.000000  -0.000000
   96  C 12  Z   -0.000000   0.000000  -0.000000   0.000000  -0.000000
   97  C 12 XX   -0.000000   0.000166   0.012413   0.000000  -0.000000
   98  C 12 YY   -0.000000  -0.005400  -0.018654   0.000000  -0.000000
   99  C 12 ZZ   -0.000000   0.000567   0.003364   0.000000  -0.000000
  100  C 12 XY   -0.012536   0.000000  -0.000000  -0.009909   0.014507
  101  C 12 XZ   -0.000000   0.000000  -0.000000   0.000000  -0.000000
  102  C 12 YZ   -0.000000   0.000000  -0.000000   0.000000  -0.000000

                     16         17         18         19         20
                   -0.5783    -0.4933    -0.4867    -0.4867    -0.3291
                     E1U        A2U        E2G        E2G        E1G 
    1  H  1  S    0.082154  -0.000000   0.081439   0.141056   0.000000
    2  H  1  S    0.064360  -0.000000   0.072347   0.125308   0.000000
    3  H  2  S   -0.082154  -0.000000   0.081439  -0.141056   0.000000
    4  H  2  S   -0.064360  -0.000000   0.072347  -0.125308   0.000000
    5  H  3  S   -0.164308  -0.000000  -0.162877   0.000000   0.000000
    6  H  3  S   -0.128720  -0.000000  -0.144693   0.000000   0.000000
    7  H  4  S   -0.082154  -0.000000   0.081439   0.141056   0.000000
    8  H  4  S   -0.064360  -0.000000   0.072347   0.125308   0.000000
    9  H  5  S    0.082154  -0.000000   0.081439  -0.141056   0.000000
   10  H  5  S    0.064360  -0.000000   0.072347  -0.125308   0.000000
   11  H  6  S    0.164308  -0.000000  -0.162877   0.000000   0.000000
   12  H  6  S    0.128720  -0.000000  -0.144693   0.000000   0.000000
   13  C  7  S    0.009900  -0.000000   0.002152   0.003727   0.000000
   14  C  7  S   -0.022410  -0.000000  -0.007430  -0.012870   0.000000
   15  C  7  X   -0.163067  -0.000000   0.014036  -0.229701   0.000000
   16  C  7  Y    0.009255  -0.000000   0.245909  -0.014036   0.000000
   17  C  7  Z   -0.000000   0.209736  -0.000000   0.000000  -0.157021
   18  C  7  S   -0.013365  -0.000000   0.002890   0.005006   0.000000
   19  C  7  X   -0.069968  -0.000000  -0.009160  -0.127465   0.000000
   20  C  7  Y    0.010098  -0.000000   0.116888   0.009160   0.000000
   21  C  7  Z   -0.000000   0.137511  -0.000000   0.000000  -0.133820
   22  C  7 XX   -0.004361  -0.000000   0.017847   0.007509   0.000000
   23  C  7 YY    0.008226  -0.000000  -0.013669  -0.000272   0.000000
   24  C  7 ZZ    0.000057  -0.000000  -0.000411  -0.000711   0.000000
   25  C  7 XY   -0.012540  -0.000000  -0.004493  -0.023383   0.000000
   26  C  7 XZ   -0.000000   0.010378  -0.000000   0.000000  -0.013497
   27  C  7 YZ   -0.000000  -0.005992  -0.000000   0.000000  -0.013833
   28  C  8  S   -0.009900  -0.000000   0.002152  -0.003727   0.000000
   29  C  8  S    0.022410  -0.000000  -0.007430   0.012870   0.000000
   30  C  8  X    0.163067  -0.000000   0.014036   0.229701   0.000000
   31  C  8  Y    0.009255  -0.000000  -0.245909  -0.014036   0.000000
   32  C  8  Z   -0.000000   0.209736  -0.000000   0.000000   0.157021
   33  C  8  S    0.013365  -0.000000   0.002890  -0.005006   0.000000
   34  C  8  X    0.069968  -0.000000  -0.009160   0.127465   0.000000
   35  C  8  Y    0.010098  -0.000000  -0.116888   0.009160   0.000000
   36  C  8  Z   -0.000000   0.137511  -0.000000   0.000000   0.133820
   37  C  8 XX    0.004361  -0.000000   0.017847  -0.007509   0.000000
   38  C  8 YY   -0.008226  -0.000000  -0.013669   0.000272   0.000000
   39  C  8 ZZ   -0.000057  -0.000000  -0.000411   0.000711   0.000000
   40  C  8 XY   -0.012540  -0.000000   0.004493  -0.023383   0.000000
   41  C  8 XZ   -0.000000   0.010378  -0.000000   0.000000   0.013497
   42  C  8 YZ   -0.000000   0.005992  -0.000000   0.000000  -0.013833
   43  C  9  S   -0.019800  -0.000000  -0.004304   0.000000   0.000000
   44  C  9  S    0.044820  -0.000000   0.014861   0.000000   0.000000
   45  C  9  X   -0.000000  -0.000000  -0.000000  -0.254013   0.000000
   46  C  9  Y    0.291695  -0.000000   0.221597   0.000000   0.000000
   47  C  9  Z   -0.000000   0.209736  -0.000000   0.000000   0.314043
   48  C  9  S    0.026729  -0.000000  -0.005780   0.000000   0.000000
   49  C  9  X   -0.000000  -0.000000  -0.000000  -0.111599   0.000000
   50  C  9  Y    0.131286  -0.000000   0.132753   0.000000   0.000000
   51  C  9  Z   -0.000000   0.137511  -0.000000   0.000000   0.267640
   52  C  9 XX    0.008652  -0.000000   0.018319   0.000000   0.000000
   53  C  9 YY   -0.016381  -0.000000  -0.026675   0.000000   0.000000
   54  C  9 ZZ   -0.000114  -0.000000   0.000821   0.000000   0.000000
   55  C  9 XY   -0.000000  -0.000000  -0.000000  -0.015602   0.000000
   56  C  9 XZ   -0.000000  -0.000000  -0.000000   0.000000   0.000000
   57  C  9 YZ   -0.000000   0.011984  -0.000000   0.000000   0.009545
   58  C 10  S   -0.009900  -0.000000   0.002152   0.003727   0.000000
   59  C 10  S    0.022410  -0.000000  -0.007430  -0.012870   0.000000
   60  C 10  X   -0.163067  -0.000000  -0.014036   0.229701   0.000000
   61  C 10  Y    0.009255  -0.000000  -0.245909   0.014036   0.000000
   62  C 10  Z   -0.000000   0.209736  -0.000000   0.000000   0.157021
   63  C 10  S    0.013365  -0.000000   0.002890   0.005006   0.000000
   64  C 10  X   -0.069968  -0.000000   0.009160   0.127465   0.000000
   65  C 10  Y    0.010098  -0.000000  -0.116888  -0.009160   0.000000
   66  C 10  Z   -0.000000   0.137511  -0.000000   0.000000   0.133820
   67  C 10 XX    0.004361  -0.000000   0.017847   0.007509   0.000000
   68  C 10 YY   -0.008226  -0.000000  -0.013669  -0.000272   0.000000
   69  C 10 ZZ   -0.000057  -0.000000  -0.000411  -0.000711   0.000000
   70  C 10 XY    0.012540  -0.000000  -0.004493  -0.023383   0.000000
   71  C 10 XZ   -0.000000  -0.010378  -0.000000   0.000000  -0.013497
   72  C 10 YZ   -0.000000   0.005992  -0.000000   0.000000  -0.013833
   73  C 11  S    0.009900  -0.000000   0.002152  -0.003727   0.000000
   74  C 11  S   -0.022410  -0.000000  -0.007430   0.012870   0.000000
   75  C 11  X    0.163067  -0.000000  -0.014036  -0.229701   0.000000
   76  C 11  Y    0.009255  -0.000000   0.245909   0.014036   0.000000
   77  C 11  Z   -0.000000   0.209736  -0.000000   0.000000  -0.157021
   78  C 11  S   -0.013365  -0.000000   0.002890  -0.005006   0.000000
   79  C 11  X    0.069968  -0.000000   0.009160  -0.127465   0.000000
   80  C 11  Y    0.010098  -0.000000   0.116888  -0.009160   0.000000
   81  C 11  Z   -0.000000   0.137511  -0.000000   0.000000  -0.133820
   82  C 11 XX   -0.004361  -0.000000   0.017847  -0.007509   0.000000
   83  C 11 YY    0.008226  -0.000000  -0.013669   0.000272   0.000000
   84  C 11 ZZ    0.000057  -0.000000  -0.000411   0.000711   0.000000
   85  C 11 XY    0.012540  -0.000000   0.004493  -0.023383   0.000000
   86  C 11 XZ   -0.000000  -0.010378  -0.000000   0.000000   0.013497
   87  C 11 YZ   -0.000000  -0.005992  -0.000000   0.000000  -0.013833
   88  C 12  S    0.019800  -0.000000  -0.004304   0.000000   0.000000
   89  C 12  S   -0.044820  -0.000000   0.014861   0.000000   0.000000
   90  C 12  X   -0.000000  -0.000000  -0.000000   0.254013   0.000000
   91  C 12  Y    0.291695  -0.000000  -0.221597   0.000000   0.000000
   92  C 12  Z   -0.000000   0.209736  -0.000000   0.000000  -0.314043
   93  C 12  S   -0.026729  -0.000000  -0.005780   0.000000   0.000000
   94  C 12  X   -0.000000  -0.000000  -0.000000   0.111599   0.000000
   95  C 12  Y    0.131286  -0.000000  -0.132753   0.000000   0.000000
   96  C 12  Z   -0.000000   0.137511  -0.000000   0.000000  -0.267640
   97  C 12 XX   -0.008652  -0.000000   0.018319   0.000000   0.000000
   98  C 12 YY    0.016381  -0.000000  -0.026675   0.000000   0.000000
   99  C 12 ZZ    0.000114  -0.000000   0.000821   0.000000   0.000000
  100  C 12 XY   -0.000000  -0.000000  -0.000000  -0.015602   0.000000
  101  C 12 XZ   -0.000000  -0.000000  -0.000000   0.000000   0.000000
  102  C 12 YZ   -0.000000  -0.011984  -0.000000   0.000000   0.009545

                     21         22         23         24         25
                   -0.3291     0.1456     0.1456     0.2289     0.2894
                     E1G        E2U        E2U        A1G        E1U 
    1  H  1  S    0.000000   0.000000   0.000000   0.037698  -0.010222
    2  H  1  S    0.000000   0.000000   0.000000   0.760632  -1.127760
    3  H  2  S    0.000000   0.000000   0.000000   0.037698  -0.010222
    4  H  2  S    0.000000   0.000000   0.000000   0.760632  -1.127760
    5  H  3  S    0.000000   0.000000   0.000000   0.037698  -0.000000
    6  H  3  S    0.000000   0.000000   0.000000   0.760632  -0.000000
    7  H  4  S    0.000000   0.000000   0.000000   0.037698   0.010222
    8  H  4  S    0.000000   0.000000   0.000000   0.760632   1.127760
    9  H  5  S    0.000000   0.000000   0.000000   0.037698   0.010222
   10  H  5  S    0.000000   0.000000   0.000000   0.760632   1.127760
   11  H  6  S    0.000000   0.000000   0.000000   0.037698  -0.000000
   12  H  6  S    0.000000   0.000000   0.000000   0.760632  -0.000000
   13  C  7  S    0.000000   0.000000   0.000000   0.037706  -0.032996
   14  C  7  S    0.000000   0.000000   0.000000  -0.047800   0.012003
   15  C  7  X    0.000000   0.000000   0.000000   0.094343  -0.159459
   16  C  7  Y    0.000000   0.000000   0.000000  -0.054469   0.082111
   17  C  7  Z   -0.271969  -0.268907  -0.155254  -0.000000  -0.000000
   18  C  7  S    0.000000   0.000000   0.000000  -0.538291   0.932889
   19  C  7  X    0.000000   0.000000   0.000000   0.263171  -0.432655
   20  C  7  Y    0.000000   0.000000   0.000000  -0.151942   0.413084
   21  C  7  Z   -0.231783  -0.489973  -0.282886  -0.000000  -0.000000
   22  C  7 XX    0.000000   0.000000   0.000000   0.010481   0.001865
   23  C  7 YY    0.000000   0.000000   0.000000  -0.004564  -0.001420
   24  C  7 ZZ    0.000000   0.000000   0.000000   0.000166  -0.003844
   25  C  7 XY    0.000000   0.000000   0.000000  -0.015045   0.008619
   26  C  7 XZ   -0.001753  -0.001117   0.018316  -0.000000  -0.000000
   27  C  7 YZ    0.013497  -0.018316   0.022267  -0.000000  -0.000000
   28  C  8  S    0.000000   0.000000   0.000000   0.037706  -0.032996
   29  C  8  S    0.000000   0.000000   0.000000  -0.047800   0.012003
   30  C  8  X    0.000000   0.000000   0.000000   0.094343  -0.159459
   31  C  8  Y    0.000000   0.000000   0.000000   0.054469  -0.082111
   32  C  8  Z   -0.271969   0.268907  -0.155254  -0.000000  -0.000000
   33  C  8  S    0.000000   0.000000   0.000000  -0.538291   0.932889
   34  C  8  X    0.000000   0.000000   0.000000   0.263171  -0.432655
   35  C  8  Y    0.000000   0.000000   0.000000   0.151942  -0.413084
   36  C  8  Z   -0.231783   0.489973  -0.282886  -0.000000  -0.000000
   37  C  8 XX    0.000000   0.000000   0.000000   0.010481   0.001865
   38  C  8 YY    0.000000   0.000000   0.000000  -0.004564  -0.001420
   39  C  8 ZZ    0.000000   0.000000   0.000000   0.000166  -0.003844
   40  C  8 XY    0.000000   0.000000   0.000000   0.015045  -0.008619
   41  C  8 XZ   -0.001753   0.001117   0.018316  -0.000000  -0.000000
   42  C  8 YZ   -0.013497  -0.018316  -0.022267  -0.000000  -0.000000
   43  C  9  S    0.000000   0.000000   0.000000   0.037706  -0.000000
   44  C  9  S    0.000000   0.000000   0.000000  -0.047800  -0.000000
   45  C  9  X    0.000000   0.000000   0.000000  -0.000000  -0.017238
   46  C  9  Y    0.000000   0.000000   0.000000   0.108937  -0.000000
   47  C  9  Z    0.000000   0.000000   0.310507  -0.000000  -0.000000
   48  C  9  S    0.000000   0.000000   0.000000  -0.538291  -0.000000
   49  C  9  X    0.000000   0.000000   0.000000  -0.000000   0.282827
   50  C  9  Y    0.000000   0.000000   0.000000   0.303884  -0.000000
   51  C  9  Z    0.000000   0.000000   0.565772  -0.000000  -0.000000
   52  C  9 XX    0.000000   0.000000   0.000000  -0.012086  -0.000000
   53  C  9 YY    0.000000   0.000000   0.000000   0.018004  -0.000000
   54  C  9 ZZ    0.000000   0.000000   0.000000   0.000166  -0.000000
   55  C  9 XY    0.000000   0.000000   0.000000  -0.000000   0.011905
   56  C  9 XZ    0.021626  -0.032841   0.000000  -0.000000  -0.000000
   57  C  9 YZ    0.000000   0.000000  -0.009457  -0.000000  -0.000000
   58  C 10  S    0.000000   0.000000   0.000000   0.037706   0.032996
   59  C 10  S    0.000000   0.000000   0.000000  -0.047800  -0.012003
   60  C 10  X    0.000000   0.000000   0.000000  -0.094343  -0.159459
   61  C 10  Y    0.000000   0.000000   0.000000   0.054469   0.082111
   62  C 10  Z    0.271969  -0.268907  -0.155254  -0.000000  -0.000000
   63  C 10  S    0.000000   0.000000   0.000000  -0.538291  -0.932889
   64  C 10  X    0.000000   0.000000   0.000000  -0.263171  -0.432655
   65  C 10  Y    0.000000   0.000000   0.000000   0.151942   0.413084
   66  C 10  Z    0.231783  -0.489973  -0.282886  -0.000000  -0.000000
   67  C 10 XX    0.000000   0.000000   0.000000   0.010481  -0.001865
   68  C 10 YY    0.000000   0.000000   0.000000  -0.004564   0.001420
   69  C 10 ZZ    0.000000   0.000000   0.000000   0.000166   0.003844
   70  C 10 XY    0.000000   0.000000   0.000000  -0.015045  -0.008619
   71  C 10 XZ   -0.001753   0.001117  -0.018316  -0.000000  -0.000000
   72  C 10 YZ    0.013497   0.018316  -0.022267  -0.000000  -0.000000
   73  C 11  S    0.000000   0.000000   0.000000   0.037706   0.032996
   74  C 11  S    0.000000   0.000000   0.000000  -0.047800  -0.012003
   75  C 11  X    0.000000   0.000000   0.000000  -0.094343  -0.159459
   76  C 11  Y    0.000000   0.000000   0.000000  -0.054469  -0.082111
   77  C 11  Z    0.271969   0.268907  -0.155254  -0.000000  -0.000000
   78  C 11  S    0.000000   0.000000   0.000000  -0.538291  -0.932889
   79  C 11  X    0.000000   0.000000   0.000000  -0.263171  -0.432655
   80  C 11  Y    0.000000   0.000000   0.000000  -0.151942  -0.413084
   81  C 11  Z    0.231783   0.489973  -0.282886  -0.000000  -0.000000
   82  C 11 XX    0.000000   0.000000   0.000000   0.010481  -0.001865
   83  C 11 YY    0.000000   0.000000   0.000000  -0.004564   0.001420
   84  C 11 ZZ    0.000000   0.000000   0.000000   0.000166   0.003844
   85  C 11 XY    0.000000   0.000000   0.000000   0.015045   0.008619
   86  C 11 XZ   -0.001753  -0.001117  -0.018316  -0.000000  -0.000000
   87  C 11 YZ   -0.013497   0.018316   0.022267  -0.000000  -0.000000
   88  C 12  S    0.000000   0.000000   0.000000   0.037706  -0.000000
   89  C 12  S    0.000000   0.000000   0.000000  -0.047800  -0.000000
   90  C 12  X    0.000000   0.000000   0.000000  -0.000000  -0.017238
   91  C 12  Y    0.000000   0.000000   0.000000  -0.108937  -0.000000
   92  C 12  Z    0.000000   0.000000   0.310507  -0.000000  -0.000000
   93  C 12  S    0.000000   0.000000   0.000000  -0.538291  -0.000000
   94  C 12  X    0.000000   0.000000   0.000000  -0.000000   0.282827
   95  C 12  Y    0.000000   0.000000   0.000000  -0.303884  -0.000000
   96  C 12  Z    0.000000   0.000000   0.565772  -0.000000  -0.000000
   97  C 12 XX    0.000000   0.000000   0.000000  -0.012086  -0.000000
   98  C 12 YY    0.000000   0.000000   0.000000   0.018004  -0.000000
   99  C 12 ZZ    0.000000   0.000000   0.000000   0.000166  -0.000000
  100  C 12 XY    0.000000   0.000000   0.000000  -0.000000  -0.011905
  101  C 12 XZ    0.021626   0.032841   0.000000  -0.000000  -0.000000
  102  C 12 YZ    0.000000   0.000000   0.009457  -0.000000  -0.000000

                     26         27         28         29         30
                    0.2894     0.3280     0.3280     0.3307     0.3635
                     E1U        E2G        E2G        B2U        B1G 
    1  H  1  S   -0.005902  -0.005644  -0.009775   0.025637  -0.000000
    2  H  1  S   -0.651112   0.693127   1.200532   1.340579  -0.000000
    3  H  2  S    0.005902  -0.005644   0.009775  -0.025637  -0.000000
    4  H  2  S    0.651112   0.693127  -1.200532  -1.340579  -0.000000
    5  H  3  S    0.011803   0.011287  -0.000000   0.025637  -0.000000
    6  H  3  S    1.302225  -1.386254  -0.000000   1.340579  -0.000000
    7  H  4  S    0.005902  -0.005644  -0.009775  -0.025637  -0.000000
    8  H  4  S    0.651112   0.693127   1.200532  -1.340579  -0.000000
    9  H  5  S   -0.005902  -0.005644   0.009775   0.025637  -0.000000
   10  H  5  S   -0.651112   0.693127  -1.200532   1.340579  -0.000000
   11  H  6  S   -0.011803   0.011287  -0.000000  -0.025637  -0.000000
   12  H  6  S   -1.302225  -1.386254  -0.000000  -1.340579  -0.000000
   13  C  7  S   -0.019050   0.039794   0.068926   0.045430  -0.000000
   14  C  7  S    0.006930  -0.045427  -0.078681  -0.145697  -0.000000
   15  C  7  X   -0.082111   0.019518   0.092654   0.051467  -0.000000
   16  C  7  Y    0.064645  -0.070117  -0.019518  -0.029714  -0.000000
   17  C  7  Z    0.000000   0.000000  -0.000000   0.000000   0.237282
   18  C  7  S    0.538604  -0.748803  -1.296965   0.591510  -0.000000
   19  C  7  X   -0.413084   0.139709   0.655881   1.359848  -0.000000
   20  C  7  Y   -0.044333  -0.494559  -0.139709  -0.785109  -0.000000
   21  C  7  Z    0.000000   0.000000  -0.000000   0.000000   0.670617
   22  C  7 XX   -0.009233   0.005065  -0.007011   0.008081  -0.000000
   23  C  7 YY    0.009490  -0.004307   0.008323   0.014857  -0.000000
   24  C  7 ZZ   -0.002219   0.001291   0.002236  -0.010489  -0.000000
   25  C  7 XY   -0.001897   0.008853   0.004812   0.006775  -0.000000
   26  C  7 XZ    0.000000   0.000000  -0.000000   0.000000  -0.013912
   27  C  7 YZ    0.000000   0.000000  -0.000000   0.000000   0.008032
   28  C  8  S    0.019050   0.039794  -0.068926  -0.045430  -0.000000
   29  C  8  S   -0.006930  -0.045427   0.078681   0.145697  -0.000000
   30  C  8  X    0.082111   0.019518  -0.092654  -0.051467  -0.000000
   31  C  8  Y    0.064645   0.070117  -0.019518  -0.029714  -0.000000
   32  C  8  Z    0.000000   0.000000  -0.000000   0.000000  -0.237282
   33  C  8  S   -0.538604  -0.748803   1.296965  -0.591510  -0.000000
   34  C  8  X    0.413084   0.139709  -0.655881  -1.359848  -0.000000
   35  C  8  Y   -0.044333   0.494559  -0.139709  -0.785109  -0.000000
   36  C  8  Z    0.000000   0.000000  -0.000000   0.000000  -0.670617
   37  C  8 XX    0.009233   0.005065   0.007011  -0.008081  -0.000000
   38  C  8 YY   -0.009490  -0.004307  -0.008323  -0.014857  -0.000000
   39  C  8 ZZ    0.002219   0.001291  -0.002236   0.010489  -0.000000
   40  C  8 XY   -0.001897  -0.008853   0.004812   0.006775  -0.000000
   41  C  8 XZ    0.000000   0.000000  -0.000000   0.000000   0.013912
   42  C  8 YZ    0.000000   0.000000  -0.000000   0.000000   0.008032
   43  C  9  S    0.038101  -0.079589  -0.000000   0.045430  -0.000000
   44  C  9  S   -0.013860   0.090853  -0.000000  -0.145697  -0.000000
   45  C  9  X    0.000000   0.000000   0.058848   0.000000  -0.000000
   46  C  9  Y    0.206866  -0.103923  -0.000000   0.059429  -0.000000
   47  C  9  Z    0.000000   0.000000  -0.000000   0.000000   0.237282
   48  C  9  S   -1.077207   1.497606  -0.000000   0.591510  -0.000000
   49  C  9  X    0.000000   0.000000   0.413898   0.000000  -0.000000
   50  C  9  Y    0.671149  -0.736541  -0.000000   1.570218  -0.000000
   51  C  9  Z    0.000000   0.000000  -0.000000   0.000000   0.670617
   52  C  9 XX   -0.006773  -0.009351  -0.000000   0.018245  -0.000000
   53  C  9 YY    0.006259   0.007836  -0.000000   0.004694  -0.000000
   54  C  9 ZZ    0.004439  -0.002582  -0.000000  -0.010489  -0.000000
   55  C  9 XY    0.000000   0.000000  -0.010522   0.000000  -0.000000
   56  C  9 XZ    0.000000   0.000000  -0.000000   0.000000  -0.000000
   57  C  9 YZ    0.000000   0.000000  -0.000000   0.000000  -0.016065
   58  C 10  S    0.019050   0.039794   0.068926  -0.045430  -0.000000
   59  C 10  S   -0.006930  -0.045427  -0.078681   0.145697  -0.000000
   60  C 10  X   -0.082111  -0.019518  -0.092654   0.051467  -0.000000
   61  C 10  Y    0.064645   0.070117   0.019518  -0.029714  -0.000000
   62  C 10  Z    0.000000   0.000000  -0.000000   0.000000  -0.237282
   63  C 10  S   -0.538604  -0.748803  -1.296965  -0.591510  -0.000000
   64  C 10  X   -0.413084  -0.139709  -0.655881   1.359848  -0.000000
   65  C 10  Y   -0.044333   0.494559   0.139709  -0.785109  -0.000000
   66  C 10  Z    0.000000   0.000000  -0.000000   0.000000  -0.670617
   67  C 10 XX    0.009233   0.005065  -0.007011  -0.008081  -0.000000
   68  C 10 YY   -0.009490  -0.004307   0.008323  -0.014857  -0.000000
   69  C 10 ZZ    0.002219   0.001291   0.002236   0.010489  -0.000000
   70  C 10 XY    0.001897   0.008853   0.004812  -0.006775  -0.000000
   71  C 10 XZ    0.000000   0.000000  -0.000000   0.000000  -0.013912
   72  C 10 YZ    0.000000   0.000000  -0.000000   0.000000   0.008032
   73  C 11  S   -0.019050   0.039794  -0.068926   0.045430  -0.000000
   74  C 11  S    0.006930  -0.045427   0.078681  -0.145697  -0.000000
   75  C 11  X    0.082111  -0.019518   0.092654  -0.051467  -0.000000
   76  C 11  Y    0.064645  -0.070117   0.019518  -0.029714  -0.000000
   77  C 11  Z    0.000000   0.000000  -0.000000   0.000000   0.237282
   78  C 11  S    0.538604  -0.748803   1.296965   0.591510  -0.000000
   79  C 11  X    0.413084  -0.139709   0.655881  -1.359848  -0.000000
   80  C 11  Y   -0.044333  -0.494559   0.139709  -0.785109  -0.000000
   81  C 11  Z    0.000000   0.000000  -0.000000   0.000000   0.670617
   82  C 11 XX   -0.009233   0.005065   0.007011   0.008081  -0.000000
   83  C 11 YY    0.009490  -0.004307  -0.008323   0.014857  -0.000000
   84  C 11 ZZ   -0.002219   0.001291  -0.002236  -0.010489  -0.000000
   85  C 11 XY    0.001897  -0.008853   0.004812  -0.006775  -0.000000
   86  C 11 XZ    0.000000   0.000000  -0.000000   0.000000   0.013912
   87  C 11 YZ    0.000000   0.000000  -0.000000   0.000000   0.008032
   88  C 12  S   -0.038101  -0.079589  -0.000000  -0.045430  -0.000000
   89  C 12  S    0.013860   0.090853  -0.000000   0.145697  -0.000000
   90  C 12  X    0.000000   0.000000  -0.058848   0.000000  -0.000000
   91  C 12  Y    0.206866   0.103923  -0.000000   0.059429  -0.000000
   92  C 12  Z    0.000000   0.000000  -0.000000   0.000000  -0.237282
   93  C 12  S    1.077207   1.497606  -0.000000  -0.591510  -0.000000
   94  C 12  X    0.000000   0.000000  -0.413898   0.000000  -0.000000
   95  C 12  Y    0.671149   0.736541  -0.000000   1.570218  -0.000000
   96  C 12  Z    0.000000   0.000000  -0.000000   0.000000  -0.670617
   97  C 12 XX    0.006773  -0.009351  -0.000000  -0.018245  -0.000000
   98  C 12 YY   -0.006259   0.007836  -0.000000  -0.004694  -0.000000
   99  C 12 ZZ   -0.004439  -0.002582  -0.000000   0.010489  -0.000000
  100  C 12 XY    0.000000   0.000000  -0.010522   0.000000  -0.000000
  101  C 12 XZ    0.000000   0.000000  -0.000000   0.000000  -0.000000
  102  C 12 YZ    0.000000   0.000000  -0.000000   0.000000  -0.016065

                     31         32         33         34         35
                    0.4686     0.4686     0.4940     0.4940     0.6608
                     E2G        E2G        E1U        E1U        B1U 
    1  H  1  S   -0.006536  -0.011321   0.119863  -0.069203  -0.000000
    2  H  1  S   -0.484280  -0.838798  -0.095095   0.054903  -0.000000
    3  H  2  S   -0.006536   0.011321   0.119863   0.069203  -0.000000
    4  H  2  S   -0.484280   0.838798  -0.095095  -0.054903  -0.000000
    5  H  3  S    0.013072   0.000000   0.000000   0.138406  -0.000000
    6  H  3  S    0.968560   0.000000   0.000000  -0.109806  -0.000000
    7  H  4  S   -0.006536  -0.011321  -0.119863   0.069203  -0.000000
    8  H  4  S   -0.484280  -0.838798   0.095095  -0.054903  -0.000000
    9  H  5  S   -0.006536   0.011321  -0.119863  -0.069203  -0.000000
   10  H  5  S   -0.484280   0.838798   0.095095   0.054903  -0.000000
   11  H  6  S    0.013072   0.000000   0.000000  -0.138406  -0.000000
   12  H  6  S    0.968560   0.000000   0.000000   0.109806  -0.000000
   13  C  7  S    0.036402   0.063050  -0.041625   0.024032  -0.000000
   14  C  7  S   -0.026224  -0.045422   0.016439  -0.009491  -0.000000
   15  C  7  X   -0.079305  -0.149048   0.091879   0.077816   0.164549
   16  C  7  Y    0.057474   0.079305   0.077816   0.181733   0.285008
   17  C  7  Z   -0.000000   0.000000   0.000000   0.000000  -0.000000
   18  C  7  S   -1.083370  -1.876453   1.808294  -1.044019  -0.000000
   19  C  7  X   -1.130523  -1.014042   0.721609   0.828187  -0.250871
   20  C  7  Y   -0.291373   1.130523   0.828187   1.677917  -0.434521
   21  C  7  Z   -0.000000   0.000000   0.000000   0.000000  -0.000000
   22  C  7 XX    0.017493  -0.016044   0.009166  -0.022317   0.036517
   23  C  7 YY   -0.024300   0.004255  -0.003495   0.019043  -0.036517
   24  C  7 ZZ    0.001113   0.001927  -0.000322   0.000186  -0.000000
   25  C  7 XY    0.011720  -0.010596  -0.032320   0.007310   0.024345
   26  C  7 XZ   -0.000000   0.000000   0.000000   0.000000  -0.000000
   27  C  7 YZ   -0.000000   0.000000   0.000000   0.000000  -0.000000
   28  C  8  S    0.036402  -0.063050  -0.041625  -0.024032  -0.000000
   29  C  8  S   -0.026224   0.045422   0.016439   0.009491  -0.000000
   30  C  8  X   -0.079305   0.149048   0.091879  -0.077816   0.164549
   31  C  8  Y   -0.057474   0.079305  -0.077816   0.181733  -0.285008
   32  C  8  Z   -0.000000   0.000000   0.000000   0.000000  -0.000000
   33  C  8  S   -1.083370   1.876453   1.808294   1.044019  -0.000000
   34  C  8  X   -1.130523   1.014042   0.721609  -0.828187  -0.250871
   35  C  8  Y    0.291373   1.130523  -0.828187   1.677917   0.434521
   36  C  8  Z   -0.000000   0.000000   0.000000   0.000000  -0.000000
   37  C  8 XX    0.017493   0.016044   0.009166   0.022317   0.036517
   38  C  8 YY   -0.024300  -0.004255  -0.003495  -0.019043  -0.036517
   39  C  8 ZZ    0.001113  -0.001927  -0.000322  -0.000186  -0.000000
   40  C  8 XY   -0.011720  -0.010596   0.032320   0.007310  -0.024345
   41  C  8 XZ   -0.000000   0.000000   0.000000   0.000000  -0.000000
   42  C  8 YZ   -0.000000   0.000000   0.000000   0.000000  -0.000000
   43  C  9  S   -0.072804   0.000000   0.000000  -0.048064  -0.000000
   44  C  9  S    0.052449   0.000000   0.000000   0.018982  -0.000000
   45  C  9  X   -0.000000  -0.011687   0.226661   0.000000  -0.329099
   46  C  9  Y    0.194835   0.000000   0.000000   0.046952  -0.000000
   47  C  9  Z   -0.000000   0.000000   0.000000   0.000000  -0.000000
   48  C  9  S    2.166741   0.000000   0.000000   2.088039  -0.000000
   49  C  9  X   -0.000000   0.944081   2.156071   0.000000   0.501741
   50  C  9  Y    1.666750   0.000000   0.000000   0.243455  -0.000000
   51  C  9  Z   -0.000000   0.000000   0.000000   0.000000  -0.000000
   52  C  9 XX    0.010124   0.000000   0.000000  -0.028371  -0.000000
   53  C  9 YY    0.003490   0.000000   0.000000   0.034919  -0.000000
   54  C  9 ZZ   -0.002226   0.000000   0.000000  -0.000371  -0.000000
   55  C  9 XY   -0.000000  -0.030895  -0.019659   0.000000  -0.048689
   56  C  9 XZ   -0.000000   0.000000   0.000000   0.000000  -0.000000
   57  C  9 YZ   -0.000000   0.000000   0.000000   0.000000  -0.000000
   58  C 10  S    0.036402   0.063050   0.041625  -0.024032  -0.000000
   59  C 10  S   -0.026224  -0.045422  -0.016439   0.009491  -0.000000
   60  C 10  X    0.079305   0.149048   0.091879   0.077816   0.164549
   61  C 10  Y   -0.057474  -0.079305   0.077816   0.181733   0.285008
   62  C 10  Z   -0.000000   0.000000   0.000000   0.000000  -0.000000
   63  C 10  S   -1.083370  -1.876453  -1.808294   1.044019  -0.000000
   64  C 10  X    1.130523   1.014042   0.721609   0.828187  -0.250871
   65  C 10  Y    0.291373  -1.130523   0.828187   1.677917  -0.434521
   66  C 10  Z   -0.000000   0.000000   0.000000   0.000000  -0.000000
   67  C 10 XX    0.017493  -0.016044  -0.009166   0.022317  -0.036517
   68  C 10 YY   -0.024300   0.004255   0.003495  -0.019043   0.036517
   69  C 10 ZZ    0.001113   0.001927   0.000322  -0.000186  -0.000000
   70  C 10 XY    0.011720  -0.010596   0.032320  -0.007310  -0.024345
   71  C 10 XZ   -0.000000   0.000000   0.000000   0.000000  -0.000000
   72  C 10 YZ   -0.000000   0.000000   0.000000   0.000000  -0.000000
   73  C 11  S    0.036402  -0.063050   0.041625   0.024032  -0.000000
   74  C 11  S   -0.026224   0.045422  -0.016439  -0.009491  -0.000000
   75  C 11  X    0.079305  -0.149048   0.091879  -0.077816   0.164549
   76  C 11  Y    0.057474  -0.079305  -0.077816   0.181733  -0.285008
   77  C 11  Z   -0.000000   0.000000   0.000000   0.000000  -0.000000
   78  C 11  S   -1.083370   1.876453  -1.808294  -1.044019  -0.000000
   79  C 11  X    1.130523  -1.014042   0.721609  -0.828187  -0.250871
   80  C 11  Y   -0.291373  -1.130523  -0.828187   1.677917   0.434521
   81  C 11  Z   -0.000000   0.000000   0.000000   0.000000  -0.000000
   82  C 11 XX    0.017493   0.016044  -0.009166  -0.022317  -0.036517
   83  C 11 YY   -0.024300  -0.004255   0.003495   0.019043   0.036517
   84  C 11 ZZ    0.001113  -0.001927   0.000322   0.000186  -0.000000
   85  C 11 XY   -0.011720  -0.010596  -0.032320  -0.007310   0.024345
   86  C 11 XZ   -0.000000   0.000000   0.000000   0.000000  -0.000000
   87  C 11 YZ   -0.000000   0.000000   0.000000   0.000000  -0.000000
   88  C 12  S   -0.072804   0.000000   0.000000   0.048064  -0.000000
   89  C 12  S    0.052449   0.000000   0.000000  -0.018982  -0.000000
   90  C 12  X   -0.000000   0.011687   0.226661   0.000000  -0.329099
   91  C 12  Y   -0.194835   0.000000   0.000000   0.046952  -0.000000
   92  C 12  Z   -0.000000   0.000000   0.000000   0.000000  -0.000000
   93  C 12  S    2.166741   0.000000   0.000000  -2.088039  -0.000000
   94  C 12  X   -0.000000  -0.944081   2.156071   0.000000   0.501741
   95  C 12  Y   -1.666750   0.000000   0.000000   0.243455  -0.000000
   96  C 12  Z   -0.000000   0.000000   0.000000   0.000000  -0.000000
   97  C 12 XX    0.010124   0.000000   0.000000   0.028371  -0.000000
   98  C 12 YY    0.003490   0.000000   0.000000  -0.034919  -0.000000
   99  C 12 ZZ   -0.002226   0.000000   0.000000   0.000371  -0.000000
  100  C 12 XY   -0.000000  -0.030895   0.019659   0.000000   0.048689
  101  C 12 XZ   -0.000000   0.000000   0.000000   0.000000  -0.000000
  102  C 12 YZ   -0.000000   0.000000   0.000000   0.000000  -0.000000

                     36         37         38         39         40
                    0.7371     0.7561     0.7727     0.7736     0.7884
                     A1G        A2U        B2U        A2G        A1G 
    1  H  1  S   -0.145059  -0.000000  -0.162186   0.000000  -0.333382
    2  H  1  S    0.224959  -0.000000   1.224022   0.000000  -0.010714
    3  H  2  S   -0.145059  -0.000000   0.162186   0.000000  -0.333382
    4  H  2  S    0.224959  -0.000000  -1.224022   0.000000  -0.010714
    5  H  3  S   -0.145059  -0.000000  -0.162186   0.000000  -0.333382
    6  H  3  S    0.224959  -0.000000   1.224022   0.000000  -0.010714
    7  H  4  S   -0.145059  -0.000000   0.162186   0.000000  -0.333382
    8  H  4  S    0.224959  -0.000000  -1.224022   0.000000  -0.010714
    9  H  5  S   -0.145059  -0.000000  -0.162186   0.000000  -0.333382
   10  H  5  S    0.224959  -0.000000   1.224022   0.000000  -0.010714
   11  H  6  S   -0.145059  -0.000000   0.162186   0.000000  -0.333382
   12  H  6  S    0.224959  -0.000000  -1.224022   0.000000  -0.010714
   13  C  7  S    0.003070  -0.000000  -0.113953   0.000000  -0.014120
   14  C  7  S    0.408143  -0.000000   0.068426   0.000000  -0.359637
   15  C  7  X    0.187563  -0.000000   0.096538  -0.109204   0.047338
   16  C  7  Y   -0.108289  -0.000000  -0.055736  -0.189147  -0.027331
   17  C  7  Z    0.000000   0.430383   0.000000   0.000000   0.000000
   18  C  7  S   -0.389475  -0.000000   4.249278   0.000000   0.500337
   19  C  7  X   -0.128117  -0.000000   2.777496  -1.952156  -0.166404
   20  C  7  Y    0.073969  -0.000000  -1.603588  -3.381233   0.096073
   21  C  7  Z    0.000000  -0.301935   0.000000   0.000000   0.000000
   22  C  7 XX    0.012836  -0.000000  -0.001102   0.005827  -0.082148
   23  C  7 YY    0.067955  -0.000000   0.005079  -0.005827  -0.037294
   24  C  7 ZZ    0.003405  -0.000000   0.023155   0.000000   0.025077
   25  C  7 XY    0.055119  -0.000000   0.006181   0.003885   0.044854
   26  C  7 XZ    0.000000   0.018374   0.000000   0.000000   0.000000
   27  C  7 YZ    0.000000  -0.010608   0.000000   0.000000   0.000000
   28  C  8  S    0.003070  -0.000000   0.113953   0.000000  -0.014120
   29  C  8  S    0.408143  -0.000000  -0.068426   0.000000  -0.359637
   30  C  8  X    0.187563  -0.000000  -0.096538   0.109204   0.047338
   31  C  8  Y    0.108289  -0.000000  -0.055736  -0.189147   0.027331
   32  C  8  Z    0.000000   0.430383   0.000000   0.000000   0.000000
   33  C  8  S   -0.389475  -0.000000  -4.249278   0.000000   0.500337
   34  C  8  X   -0.128117  -0.000000  -2.777496   1.952156  -0.166404
   35  C  8  Y   -0.073969  -0.000000  -1.603588  -3.381233  -0.096073
   36  C  8  Z    0.000000  -0.301935   0.000000   0.000000   0.000000
   37  C  8 XX    0.012836  -0.000000   0.001102  -0.005827  -0.082148
   38  C  8 YY    0.067955  -0.000000  -0.005079   0.005827  -0.037294
   39  C  8 ZZ    0.003405  -0.000000  -0.023155   0.000000   0.025077
   40  C  8 XY   -0.055119  -0.000000   0.006181   0.003885  -0.044854
   41  C  8 XZ    0.000000   0.018374   0.000000   0.000000   0.000000
   42  C  8 YZ    0.000000   0.010608   0.000000   0.000000   0.000000
   43  C  9  S    0.003070  -0.000000  -0.113953   0.000000  -0.014120
   44  C  9  S    0.408143  -0.000000   0.068426   0.000000  -0.359637
   45  C  9  X    0.000000  -0.000000   0.000000   0.218408   0.000000
   46  C  9  Y    0.216579  -0.000000   0.111473   0.000000   0.054661
   47  C  9  Z    0.000000   0.430383   0.000000   0.000000   0.000000
   48  C  9  S   -0.389475  -0.000000   4.249278   0.000000   0.500337
   49  C  9  X    0.000000  -0.000000   0.000000   3.904312   0.000000
   50  C  9  Y   -0.147937  -0.000000   3.207176   0.000000  -0.192146
   51  C  9  Z    0.000000  -0.301935   0.000000   0.000000   0.000000
   52  C  9 XX    0.095514  -0.000000   0.008170   0.000000  -0.014867
   53  C  9 YY   -0.014723  -0.000000  -0.004192   0.000000  -0.104574
   54  C  9 ZZ    0.003405  -0.000000   0.023155   0.000000   0.025077
   55  C  9 XY    0.000000  -0.000000   0.000000  -0.007769   0.000000
   56  C  9 XZ    0.000000  -0.000000   0.000000   0.000000   0.000000
   57  C  9 YZ    0.000000   0.021217   0.000000   0.000000   0.000000
   58  C 10  S    0.003070  -0.000000   0.113953   0.000000  -0.014120
   59  C 10  S    0.408143  -0.000000  -0.068426   0.000000  -0.359637
   60  C 10  X   -0.187563  -0.000000   0.096538   0.109204  -0.047338
   61  C 10  Y    0.108289  -0.000000  -0.055736   0.189147   0.027331
   62  C 10  Z    0.000000   0.430383   0.000000   0.000000   0.000000
   63  C 10  S   -0.389475  -0.000000  -4.249278   0.000000   0.500337
   64  C 10  X    0.128117  -0.000000   2.777496   1.952156   0.166404
   65  C 10  Y   -0.073969  -0.000000  -1.603588   3.381233  -0.096073
   66  C 10  Z    0.000000  -0.301935   0.000000   0.000000   0.000000
   67  C 10 XX    0.012836  -0.000000   0.001102   0.005827  -0.082148
   68  C 10 YY    0.067955  -0.000000  -0.005079  -0.005827  -0.037294
   69  C 10 ZZ    0.003405  -0.000000  -0.023155   0.000000   0.025077
   70  C 10 XY    0.055119  -0.000000  -0.006181   0.003885   0.044854
   71  C 10 XZ    0.000000  -0.018374   0.000000   0.000000   0.000000
   72  C 10 YZ    0.000000   0.010608   0.000000   0.000000   0.000000
   73  C 11  S    0.003070  -0.000000  -0.113953   0.000000  -0.014120
   74  C 11  S    0.408143  -0.000000   0.068426   0.000000  -0.359637
   75  C 11  X   -0.187563  -0.000000  -0.096538  -0.109204  -0.047338
   76  C 11  Y   -0.108289  -0.000000  -0.055736   0.189147  -0.027331
   77  C 11  Z    0.000000   0.430383   0.000000   0.000000   0.000000
   78  C 11  S   -0.389475  -0.000000   4.249278   0.000000   0.500337
   79  C 11  X    0.128117  -0.000000  -2.777496  -1.952156   0.166404
   80  C 11  Y    0.073969  -0.000000  -1.603588   3.381233   0.096073
   81  C 11  Z    0.000000  -0.301935   0.000000   0.000000   0.000000
   82  C 11 XX    0.012836  -0.000000  -0.001102  -0.005827  -0.082148
   83  C 11 YY    0.067955  -0.000000   0.005079   0.005827  -0.037294
   84  C 11 ZZ    0.003405  -0.000000   0.023155   0.000000   0.025077
   85  C 11 XY   -0.055119  -0.000000  -0.006181   0.003885  -0.044854
   86  C 11 XZ    0.000000  -0.018374   0.000000   0.000000   0.000000
   87  C 11 YZ    0.000000  -0.010608   0.000000   0.000000   0.000000
   88  C 12  S    0.003070  -0.000000   0.113953   0.000000  -0.014120
   89  C 12  S    0.408143  -0.000000  -0.068426   0.000000  -0.359637
   90  C 12  X    0.000000  -0.000000   0.000000  -0.218408   0.000000
   91  C 12  Y   -0.216579  -0.000000   0.111473   0.000000  -0.054661
   92  C 12  Z    0.000000   0.430383   0.000000   0.000000   0.000000
   93  C 12  S   -0.389475  -0.000000  -4.249278   0.000000   0.500337
   94  C 12  X    0.000000  -0.000000   0.000000  -3.904312   0.000000
   95  C 12  Y    0.147937  -0.000000   3.207176   0.000000   0.192146
   96  C 12  Z    0.000000  -0.301935   0.000000   0.000000   0.000000
   97  C 12 XX    0.095514  -0.000000  -0.008170   0.000000  -0.014867
   98  C 12 YY   -0.014723  -0.000000   0.004192   0.000000  -0.104574
   99  C 12 ZZ    0.003405  -0.000000  -0.023155   0.000000   0.025077
  100  C 12 XY    0.000000  -0.000000   0.000000  -0.007769   0.000000
  101  C 12 XZ    0.000000  -0.000000   0.000000   0.000000   0.000000
  102  C 12 YZ    0.000000  -0.021217   0.000000   0.000000   0.000000

                     41         42         43         44         45
                    0.8325     0.8325     0.8427     0.8427     0.8442
                     E1G        E1G        E1U        E1U        E2G 
    1  H  1  S   -0.000000  -0.000000   0.237491   0.137116   0.128331
    2  H  1  S   -0.000000  -0.000000   0.098255   0.056728  -0.067059
    3  H  2  S   -0.000000  -0.000000   0.237491  -0.137116   0.128331
    4  H  2  S   -0.000000  -0.000000   0.098255  -0.056728  -0.067059
    5  H  3  S   -0.000000  -0.000000  -0.000000  -0.274231  -0.256661
    6  H  3  S   -0.000000  -0.000000  -0.000000  -0.113455   0.134119
    7  H  4  S   -0.000000  -0.000000  -0.237491  -0.137116   0.128331
    8  H  4  S   -0.000000  -0.000000  -0.098255  -0.056728  -0.067059
    9  H  5  S   -0.000000  -0.000000  -0.237491   0.137116   0.128331
   10  H  5  S   -0.000000  -0.000000  -0.098255   0.056728  -0.067059
   11  H  6  S   -0.000000  -0.000000  -0.000000   0.274231  -0.256661
   12  H  6  S   -0.000000  -0.000000  -0.000000   0.113455   0.134119
   13  C  7  S   -0.000000  -0.000000   0.043846   0.025315   0.039176
   14  C  7  S   -0.000000  -0.000000   0.457641   0.264219  -0.025359
   15  C  7  X   -0.000000  -0.000000  -0.096847   0.187474  -0.313634
   16  C  7  Y   -0.000000  -0.000000  -0.187474   0.313324  -0.341889
   17  C  7  Z   -0.307898  -0.533295  -0.000000   0.000000  -0.000000
   18  C  7  S   -0.000000  -0.000000  -0.664980  -0.383926  -0.096102
   19  C  7  X   -0.000000  -0.000000   0.069445  -0.114545   0.154187
[...]
 TOTAL WALL CLOCK TIME=        5.0 SECONDS, CPU UTILIZATION IS  96.87%

     ----------------------------------------------------------------
     PROPERTY VALUES FOR THE RHF   SELF-CONSISTENT FIELD WAVEFUNCTION
     ----------------------------------------------------------------

          ---------------------------------------
          MULLIKEN AND LOWDIN POPULATION ANALYSES
          ---------------------------------------

               ----- POPULATIONS IN EACH AO -----
                             MULLIKEN      LOWDIN
              1  H  1  S      0.51960     0.48488
              2  H  1  S      0.28017     0.35248
              3  H  2  S      0.51960     0.48488
              4  H  2  S      0.28017     0.35248
              5  H  3  S      0.51960     0.48707
              6  H  3  S      0.28017     0.35270
              7  H  4  S      0.51960     0.48488
              8  H  4  S      0.28017     0.35248
              9  H  5  S      0.51960     0.48488
             10  H  5  S      0.28017     0.35248
             11  H  6  S      0.51960     0.48707
             12  H  6  S      0.28017     0.35270
             13  C  7  S      1.99664     1.97981
             14  C  7  S      0.66793     0.35225
             15  C  7  X      0.72548     0.64431
             16  C  7  Y      0.73796     0.65675
             17  C  7  Z      0.51580     0.47585
             18  C  7  S      0.49573     0.30217
             19  C  7  X      0.31146     0.39175
             20  C  7  Y      0.21655     0.34869
             21  C  7  Z      0.47423     0.50614
             22  C  7 XX      0.02797     0.17636
             23  C  7 YY      0.02230     0.17813
             24  C  7 ZZ     -0.01842     0.10098
             25  C  7 XY      0.01661     0.03177
             26  C  7 XZ      0.00391     0.00640
             27  C  7 YZ      0.00606     0.01161
             28  C  8  S      1.99664     1.97981
             29  C  8  S      0.66793     0.35225
             30  C  8  X      0.72548     0.64431
             31  C  8  Y      0.73796     0.65675
             32  C  8  Z      0.51580     0.47585
             33  C  8  S      0.49573     0.30217
             34  C  8  X      0.31146     0.39175
             35  C  8  Y      0.21655     0.34869
             36  C  8  Z      0.47423     0.50614
             37  C  8 XX      0.02797     0.17636
             38  C  8 YY      0.02230     0.17813
             39  C  8 ZZ     -0.01842     0.10098
             40  C  8 XY      0.01661     0.03177
             41  C  8 XZ      0.00391     0.00640
             42  C  8 YZ      0.00606     0.01161
             43  C  9  S      1.99664     1.97979
             44  C  9  S      0.66793     0.35185
             45  C  9  X      0.74420     0.65938
             46  C  9  Y      0.71924     0.64076
             47  C  9  Z      0.51580     0.47585
             48  C  9  S      0.49573     0.30207
             49  C  9  X      0.16909     0.32763
             50  C  9  Y      0.35892     0.41347
             51  C  9  Z      0.47423     0.50614
             52  C  9 XX      0.02092     0.18104
             53  C  9 YY      0.03227     0.17960
             54  C  9 ZZ     -0.01842     0.10092
             55  C  9 XY      0.01369     0.02311
             56  C  9 XZ      0.00714     0.01421
             57  C  9 YZ      0.00283     0.00380
             58  C 10  S      1.99664     1.97981
             59  C 10  S      0.66793     0.35225
             60  C 10  X      0.72548     0.64431
             61  C 10  Y      0.73796     0.65675
             62  C 10  Z      0.51580     0.47585
             63  C 10  S      0.49573     0.30217
             64  C 10  X      0.31146     0.39175
             65  C 10  Y      0.21655     0.34869
             66  C 10  Z      0.47423     0.50614
             67  C 10 XX      0.02797     0.17636
             68  C 10 YY      0.02230     0.17813
             69  C 10 ZZ     -0.01842     0.10098
             70  C 10 XY      0.01661     0.03177
             71  C 10 XZ      0.00391     0.00640
             72  C 10 YZ      0.00606     0.01161
             73  C 11  S      1.99664     1.97981
             74  C 11  S      0.66793     0.35225
             75  C 11  X      0.72548     0.64431
             76  C 11  Y      0.73796     0.65675
             77  C 11  Z      0.51580     0.47585
             78  C 11  S      0.49573     0.30217
             79  C 11  X      0.31146     0.39175
             80  C 11  Y      0.21655     0.34869
             81  C 11  Z      0.47423     0.50614
             82  C 11 XX      0.02797     0.17636
             83  C 11 YY      0.02230     0.17813
             84  C 11 ZZ     -0.01842     0.10098
             85  C 11 XY      0.01661     0.03177
             86  C 11 XZ      0.00391     0.00640
             87  C 11 YZ      0.00606     0.01161
             88  C 12  S      1.99664     1.97979
             89  C 12  S      0.66793     0.35185
             90  C 12  X      0.74420     0.65938
             91  C 12  Y      0.71924     0.64076
             92  C 12  Z      0.51580     0.47585
             93  C 12  S      0.49573     0.30207
             94  C 12  X      0.16909     0.32763
             95  C 12  Y      0.35892     0.41347
             96  C 12  Z      0.47423     0.50614
             97  C 12 XX      0.02092     0.18104
             98  C 12 YY      0.03227     0.17960
             99  C 12 ZZ     -0.01842     0.10092
            100  C 12 XY      0.01369     0.02311
            101  C 12 XZ      0.00714     0.01421
            102  C 12 YZ      0.00283     0.00380

          ----- MULLIKEN ATOMIC OVERLAP POPULATIONS -----
          (OFF-DIAGONAL ELEMENTS NEED TO BE MULTIPLIED BY 2)

             1           2           3           4           5

    1    0.4769079
    2   -0.0014433   0.4769079
    3   -0.0000977  -0.0014433   0.4769079
    4    0.0000083  -0.0000977  -0.0014433   0.4769079
    5   -0.0000977   0.0000083  -0.0000977  -0.0014433   0.4769079
    6   -0.0014433  -0.0000977   0.0000083  -0.0000977  -0.0014433
    7    0.3808150  -0.0298455   0.0023273   0.0001561   0.0023273
    8   -0.0298455   0.3808150  -0.0298455   0.0023273   0.0001561
    9    0.0023273  -0.0298455   0.3808150  -0.0298455   0.0023273
   10    0.0001561   0.0023273  -0.0298455   0.3808150  -0.0298455
   11    0.0023273   0.0001561   0.0023273  -0.0298455   0.3808150
   12   -0.0298455   0.0023273   0.0001561   0.0023273  -0.0298455

             6           7           8           9          10

    6    0.4769079
    7   -0.0298455   4.8966604
    8    0.0023273   0.5495712   4.8966604
    9    0.0001561  -0.0449076   0.5495712   4.8966604
   10    0.0023273  -0.0316912  -0.0449076   0.5495712   4.8966604
   11   -0.0298455  -0.0449076  -0.0316912  -0.0449076   0.5495712
   12    0.3808150   0.5495712  -0.0449076  -0.0316912  -0.0449076

            11          12

   11    4.8966604
   12    0.5495712   4.8966604

          TOTAL MULLIKEN AND LOWDIN ATOMIC POPULATIONS
       ATOM         MULL.POP.    CHARGE          LOW.POP.     CHARGE
    1 HYDROGEN      0.799769    0.200231         0.837356    0.162644
    2 HYDROGEN      0.799769    0.200231         0.837356    0.162644
    3 HYDROGEN      0.799769    0.200231         0.839768    0.160232
    4 HYDROGEN      0.799769    0.200231         0.837356    0.162644
    5 HYDROGEN      0.799769    0.200231         0.837356    0.162644
    6 HYDROGEN      0.799769    0.200231         0.839768    0.160232
    7 CARBON        6.200231   -0.200231         6.162956   -0.162956
    8 CARBON        6.200231   -0.200231         6.162956   -0.162956
    9 CARBON        6.200231   -0.200231         6.159607   -0.159607
   10 CARBON        6.200231   -0.200231         6.162956   -0.162956
   11 CARBON        6.200231   -0.200231         6.162956   -0.162956
   12 CARBON        6.200231   -0.200231         6.159607   -0.159607

          -------------------------------
          BOND ORDER AND VALENCE ANALYSIS     BOND ORDER THRESHOLD=0.050
          -------------------------------

                   BOND                       BOND                       BOND
  ATOM PAIR DIST  ORDER      ATOM PAIR DIST  ORDER      ATOM PAIR DIST  ORDER
    1   7  1.100  0.942        2   8  1.100  0.942        3   9  1.100  0.942
    4  10  1.100  0.942        5  11  1.100  0.942        6  12  1.100  0.942
    7   8  1.400  1.449        7  10  2.800  0.095        7  12  1.400  1.449
    8   9  1.400  1.449        8  11  2.800  0.095        9  10  1.400  1.449
    9  12  2.800  0.095       10  11  1.400  1.449       11  12  1.400  1.449

                       TOTAL       BONDED        FREE
      ATOM            VALENCE     VALENCE     VALENCE
    1 HYDROGEN          0.929       0.929      -0.000
    2 HYDROGEN          0.929       0.929      -0.000
    3 HYDROGEN          0.929       0.929      -0.000
    4 HYDROGEN          0.929       0.929      -0.000
    5 HYDROGEN          0.929       0.929      -0.000
    6 HYDROGEN          0.929       0.929      -0.000
    7 CARBON            3.901       3.901      -0.000
    8 CARBON            3.901       3.901      -0.000
    9 CARBON            3.901       3.901       0.000
   10 CARBON            3.901       3.901       0.000
   11 CARBON            3.901       3.901      -0.000
   12 CARBON            3.901       3.901      -0.000

          ---------------------
          ELECTROSTATIC MOMENTS
          ---------------------

 POINT   1           X           Y           Z (BOHR)    CHARGE
                 0.000000   -0.000000    0.000000       -0.00 (A.U.)
         DX          DY          DZ         /D/  (DEBYE)
    -0.000000   -0.000000    0.000000    0.000000
 ...... END OF PROPERTY EVALUATION ......
 STEP CPU TIME =     0.09 TOTAL CPU TIME =        5.0 (    0.1 MIN)
 TOTAL WALL CLOCK TIME=        5.1 SECONDS, CPU UTILIZATION IS  96.93%

     ---------------------------
     COUPLED CLUSTER CALCULATION
     ---------------------------
 CCTYP                        =CCSD(TQ)
 TOTAL NUMBER OF MOS          =   102
 NUMBER OF OCCUPIED MOS       =    21
 NUMBER OF FROZEN CORE MOS    =     6
 NUMBER OF FROZEN VIRTUAL MOS =     0
 MAXIMUM CC ITERATIONS        =    30
 MAXIMUM DIIS ITERATIONS      =     5
 CONVERGENCE CRITERION FOR CC =     7
 AMPLITUDE ACCURACY THRESHOLD = 0.0E+00

     --------------------------------------------
     PARTIAL TWO ELECTRON INTEGRAL TRANSFORMATION
     --------------------------------------------

 NUMBER OF CORE MOLECULAR ORBITALS     =    6
 NUMBER OF OCCUPIED MOLECULAR ORBITALS =  102
 TOTAL NUMBER OF MOLECULAR ORBITALS    =  102
 TOTAL NUMBER OF ATOMIC ORBITALS       =  102
 THRESHOLD FOR KEEPING TRANSFORMED 2E- INTEGRALS = 1.000E-09
 AO INTEGRALS WILL BE CALCULATED IN DIRECT MODE...
 EVALUATING THE FROZEN CORE ENERGY...
 ----- FROZEN CORE ENERGY =      -293.9861449279
 # OF WORDS AVAILABLE =   90000000
 # OF WORDS NEEDED    =   51591128 FOR IN MEMORY TRANSFORMATION

 CHOOSING IN MEMORY PARTIAL TRANSFORMATION...
 DIRECT TRANSFORMATION SKIPS AO INTEGRAL STORAGE ON DISK.
 TOTAL NUMBER OF TRANSFORMED 2E- INTEGRALS KEPT =   1304533
 ... END OF INTEGRAL TRANSFORMATION ...
 STEP CPU TIME =    50.13 TOTAL CPU TIME =       55.1 (    0.9 MIN)
 TOTAL WALL CLOCK TIME=       56.4 SECONDS, CPU UTILIZATION IS  97.65%

   -----------------------
   COUPLED-CLUSTER PROGRAM
   -----------------------

   -------------------------------------------------------
   P.PIECUCH, S.A.KUCHARSKI, M.WLOCH, K.KOWALSKI, M.MUSIAL
   -------------------------------------------------------

 *****************************************************************
 THE FOLLOWING PAPERS SHOULD BE CITED WHEN USING COUPLED-CLUSTER
 OPTIONS:

 CCTYP = LCCD, CCD, CCSD, CCSD(T)
 P. PIECUCH, S.A. KUCHARSKI, K. KOWALSKI, AND M. MUSIAL,
 COMP. PHYS. COMMUN. 149, 71-96 (2002).

 CCTYP = R-CC, CR-CC, CCSD(TQ), CR-CC(Q)
 P. PIECUCH, S.A. KUCHARSKI, K. KOWALSKI, AND M. MUSIAL,
 COMP. PHYS. COMMUN. 149, 71-96 (2002);
 K. KOWALSKI AND P. PIECUCH, J. CHEM. PHYS. 113, 18-35 (2000);
 K. KOWALSKI AND P. PIECUCH, J. CHEM. PHYS. 113, 5644-5652 (2000).

 CCTYP = EOM-CCSD, CR-EOM
 P. PIECUCH, S.A. KUCHARSKI, K. KOWALSKI, AND M. MUSIAL,
 COMP. PHYS. COMMUN. 149, 71-96 (2002);
 K. KOWALSKI AND P. PIECUCH, J. CHEM. PHYS. 120, 1715-1738 (2004);
 M. WLOCH, J.R. GOUR, K. KOWALSKI, AND P. PIECUCH,
 J. CHEM. PHYS. 122, 214107-1 - 214107-15 (2005).

 CCTYP = CR-CCL
 P. PIECUCH, S.A. KUCHARSKI, K. KOWALSKI, AND M. MUSIAL,
 COMP. PHYS. COMMUN. 149, 71-96 (2002);
 P. PIECUCH AND M. WLOCH, J. CHEM. PHYS. 123,
 224105-1 - 224105-10 (2005).

 CCTYP = CR-EOML
 P. PIECUCH, S.A. KUCHARSKI, K. KOWALSKI, AND M. MUSIAL,
 COMP. PHYS. COMMUN. 149, 71-96 (2002);
 P. PIECUCH, J. R. GOUR, AND M. WLOCH,
 INT. J. QUANTUM CHEM. 109, 3268-3304 (2009);
 K. KOWALSKI AND P. PIECUCH,
 J. CHEM. PHYS. 120, 1715-1738 (2004).

 IN ADDITION, THE USE OF CCPRP=.TRUE. IN $CCINP AND/OR THE USE
 OF CCPRPE=.TRUE. IN $EOMINP SHOULD REFERENCE

 M. WLOCH, J.R. GOUR, K. KOWALSKI, AND P. PIECUCH,
 J. CHEM. PHYS. 122, 214107-1 - 214107-15 (2005).
 *****************************************************************


 THE FOLLOWING CALCULATIONS WILL BE PERFORMED:
                                                     CCSD   
                                                     CCSD[T]
                                                     CCSD(T)
                                                   R-CCSD[T]
                                                   R-CCSD(T)
                                                  CR-CCSD[T]
                                                  CR-CCSD(T)

 THE FOLLOWING ENERGY WILL BE CONSIDERED THE HIGHEST LEVEL:   CCSD(TQ)
 THE AVAILABLE REPLICATED MEMORY IS    90000000 WORDS.
 CONVERGENCE THRESHOLD:   1.0E-07
 MAXIMUM NUMBER OF ITERATIONS:   30

 MEMORY TO BE USED IN CC INTEGRAL SORTING IS    43608162 WORDS.
 THE MINIMUM MEMORY TO ACCOMPLISH SORTING IS     8533056 WORDS.
      1304533 NON-ZERO TRANSFORMED 2E- INTEGRALS WERE SORTED INTO FILE 72:
         1025 [IJ|KL] TYPE,       18211 [AJ|KL] TYPE,
        49244 [AB|IJ] TYPE,       90803 [IA|BJ] TYPE,
       486121 [AB|CI] TYPE,      659129 [AB|CD] TYPE.
 TRANSFORMED INTEGRAL FILE  9 WAS READ    3 TIMES.
 ....... DONE WITH CC INTEGRAL PREPARATION .......
 STEP CPU TIME =    19.36 TOTAL CPU TIME =       74.4 (    1.2 MIN)
 TOTAL WALL CLOCK TIME=      112.8 SECONDS, CPU UTILIZATION IS  65.96%

 MEMORY REQUIRED FOR THE CCSD ITERATIONS IS    14742387 WORDS.
 ITER:  1   CCSD    CORR. ENERGY:  -0.7657287553   CONV.:  1.4543E-02
 ITER:  2   CCSD    CORR. ENERGY:  -0.7832310199   CONV.: -9.9848E-03
 ITER:  3   CCSD    CORR. ENERGY:  -0.7854723337   CONV.: -3.1079E-03
 ITER:  4   CCSD    CORR. ENERGY:  -0.7874000396   CONV.: -2.3691E-02
 ITER:  5   CCSD    CORR. ENERGY:  -0.7875024575   CONV.: -2.3359E-02
 ITER:  6   CCSD    CORR. ENERGY:  -0.7896436097   CONV.: -1.6790E-02
 ITER:  7   CCSD    CORR. ENERGY:  -0.7946100245   CONV.: -1.1125E-03
 ITER:  8   CCSD    CORR. ENERGY:  -0.7950368490   CONV.:  1.8682E-04
 ITER:  9   CCSD    CORR. ENERGY:  -0.7949683833   CONV.: -1.7264E-05
 ITER: 10   CCSD    CORR. ENERGY:  -0.7949706390   CONV.: -8.7724E-06
 ITER: 11   CCSD    CORR. ENERGY:  -0.7949700284   CONV.: -2.1912E-06
 ITER: 12   CCSD    CORR. ENERGY:  -0.7949707157   CONV.: -8.3256E-07
 ITER: 13   CCSD    CORR. ENERGY:  -0.7949708736   CONV.: -1.5676E-07
 ITER: 14   CCSD    CORR. ENERGY:  -0.7949709410   CONV.: -4.7863E-08
 ITER: 15   CCSD    CORR. ENERGY:  -0.7949709515   CONV.: -4.7863E-08

     THE    CCSD     ITERATIONS HAVE CONVERGED

    MBPT(2) CORRELATION ENERGY:  -0.7576180435
    CCSD    CORRELATION ENERGY:  -0.7949709515

 T1 DIAGNOSTIC        =     0.01094867
 NORM OF THE T1 VECTOR=     0.05996833
 NORM OF THE T2 VECTOR=     0.51125982

 THE FIVE LARGEST T1 AMPLITUDES ARE:
 T1 AMPLITUDE IS -0.028757 FOR I=  20 -> A=  41
 T1 AMPLITUDE IS -0.028757 FOR I=  21 -> A=  42
 T1 AMPLITUDE IS  0.021448 FOR I=  17 -> A=  37
 T1 AMPLITUDE IS -0.010110 FOR I=  13 -> A=  38
 T1 AMPLITUDE IS -0.009115 FOR I=  16 -> A=  34

 THE FIVE LARGEST SPIN-UNIQUE T2 AMPLITUDES ARE:
 T2 AMPLITUDE IS -0.094289 FOR I,J=  20  20 -> A,B=  23  23
 T2 AMPLITUDE IS -0.094289 FOR I,J=  21  21 -> A,B=  22  22
 T2 AMPLITUDE IS -0.056737 FOR I,J=  20  21 -> A,B=  22  23
 T2 AMPLITUDE IS -0.042479 FOR I,J=  17  20 -> A,B=  23  30
 T2 AMPLITUDE IS -0.042479 FOR I,J=  17  21 -> A,B=  22  30
 PRINTED T2(I-ALPHA,J-BETA -> A-ALPHA,B-BETA) VALUES
 EQUAL   T2(J-ALPHA,I-BETA -> B-ALPHA,A-BETA) AMPLITUDES.

 ....... DONE WITH CC AMPLITUDE ITERATIONS .......
 STEP CPU TIME =   573.56 TOTAL CPU TIME =      648.0 (   10.8 MIN)
 TOTAL WALL CLOCK TIME=      953.1 SECONDS, CPU UTILIZATION IS  67.99%

 MEMORY REQUIRED FOR NONITERATIVE TRIPLES  (T3WT2  ) IS     12262752 WORDS.
 MEMORY REQUIRED FOR NONITERATIVE TRIPLES  (INTQUA ) IS      9980496 WORDS.
 MEMORY REQUIRED FOR NONITERATIVE TRIPLES  (INTRIPL) IS     17952111 WORDS.
 MEMORY REQUIRED FOR NONITERATIVE TRIPLES  (INTRIP ) IS     10253871 WORDS.
 THERE IS ENOUGH MEMORY TO RUN THE MORE EFFICIENT INTRIPL INSTEAD OF INTRIP.
 MEMORY REQUIRED FOR NONITERATIVE TRIPLES  (INTRIH ) IS     10527246 WORDS.
 MEMORY USAGE BY       WDEX:   9980496 NEEDED,  89999904 AVAILABLE
 MEMORY USAGE BY   INTQUAT2:  12932946 NEEDED,  89999904 AVAILABLE
 MEMORY REQUIRED FOR NONITERATIVE TRIPLES (T3WT2N ) IS     12261537 WORDS.
 MEMORY REQUIRED FOR NONITERATIVE TRIPLES (INTRIP ) IS     10252656 WORDS.
 MEMORY REQUIRED FOR NONITERATIVE TRIPLES (INTRIH ) IS     10526031 WORDS.
 MEMORY REQUIRED FOR NONITERATIVE TRIPLES (T3WT2N ) IS     12261537 WORDS.
 MEMORY REQUIRED FOR NONITERATIVE TRIPLES (T3SQTOT) IS      3485106 WORDS.
 MEMORY USAGE BY      RANK1:   4960116 NEEDED,  89999904 AVAILABLE
 MEMORY USAGE BY     T2HPT2:  13286025 NEEDED,  89999904 AVAILABLE
 MEMORY USAGE BY     T2PPT2:  11809800 NEEDED,  89999904 AVAILABLE
 MEMORY USAGE BY     T2HHT3:   7491750 NEEDED,  89999904 AVAILABLE
 MEMORY USAGE BY     T2WWT3:  13932946 NEEDED,  89999904 AVAILABLE
 MEMORY REQUIRED FOR COMPLETELY RENOR. QUADS.22143375 WORDS

                      SUMMARY OF RESULTS

      REFERENCE ENERGY:     -230.6994410310
        MBPT(2) ENERGY:     -231.4570590745   CORR.E=  -0.7576180435
        CCSD    ENERGY:     -231.4944119824   CORR.E=  -0.7949709515
        CCSD[T] ENERGY:     -231.5318066508   CORR.E=  -0.8323656198
        CCSD(T) ENERGY:     -231.5306004514   CORR.E=  -0.8311594204
      R-CCSD[T] ENERGY:     -231.5225323429   CORR.E=  -0.8230913120
      R-CCSD(T) ENERGY:     -231.5216004306   CORR.E=  -0.8221593997

          R-CCSD[T] DENOMINATOR     1.3298075735
          R-CCSD(T) DENOMINATOR     1.3310236992

    CCSD(TQ),B  ENERGY:     -231.5303176650   CORR.E=  -0.8308766340
 R1-CCSD(TQ),A  ENERGY:     -231.5205053374   CORR.E=  -0.8210643064
 R1-CCSD(TQ),B  ENERGY:     -231.5204893434   CORR.E=  -0.8210483124
 R2-CCSD(TQ),A  ENERGY:     -231.5210447101   CORR.E=  -0.8216036791
 R2-CCSD(TQ),B  ENERGY:     -231.5209048486   CORR.E=  -0.8214638176

          CCSD(TQ),A DENOMINATOR     1.3729515982
          CCSD(TQ),B DENOMINATOR     1.3768909576

 THE FOLLOWING METHOD AND ENERGY WILL BE CONSIDERED THE HIGHEST LEVEL RESULT:
 COUPLED-CLUSTER ENERGY E(  CCSD(TQ)) =     -231.5303176650

 ..... DONE WITH CC NON-ITERATIVE TRIPLES CORRECTIONS .....
 STEP CPU TIME = 13310.64 TOTAL CPU TIME =    13958.6 (  232.6 MIN)
 TOTAL WALL CLOCK TIME=    20147.5 SECONDS, CPU UTILIZATION IS  69.28%
    51635228  WORDS OF DYNAMIC MEMORY USED
 EXECUTION OF GAMESS TERMINATED NORMALLY Thu Sep 30 02:05:32 2010
 DDI: 263224 bytes (0.3 MB / 0 MWords) used by master data server.

 ----------------------------------------
 CPU timing information for all processes
 ========================================
 0: 13195.531 + 763.390 = 13958.921
 1: 0.31 + 0.46 = 0.77
 ----------------------------------------
 ddikick.x: exited gracefully.
----- accounting info -----
