          ******************************************************
          *         GAMESS VERSION =  1 MAY 2013 (R1)          *
          *             FROM IOWA STATE UNIVERSITY             *
          * M.W.SCHMIDT, K.K.BALDRIDGE, J.A.BOATZ, S.T.ELBERT, *
          *   M.S.GORDON, J.H.JENSEN, S.KOSEKI, N.MATSUNAGA,   *
          *          K.A.NGUYEN, S.J.SU, T.L.WINDUS,           *
          *       TOGETHER WITH M.DUPUIS, J.A.MONTGOMERY       *
          *         J.COMPUT.CHEM.  14, 1347-1363(1993)        *
          *************** 64 BIT WINDOWS VERSION ***************

  SINCE 1993, STUDENTS AND POSTDOCS WORKING AT IOWA STATE UNIVERSITY
  AND ALSO IN THEIR VARIOUS JOBS AFTER LEAVING ISU HAVE MADE IMPORTANT
  CONTRIBUTIONS TO THE CODE:
     IVANA ADAMOVIC, CHRISTINE AIKENS, YURI ALEXEEV, POOJA ARORA,
     ANDREY ASADCHEV, ROB BELL, PRADIPTA BANDYOPADHYAY, JONATHAN BENTZ,
     BRETT BODE, GALINA CHABAN, WEI CHEN, CHEOL HO CHOI, PAUL DAY,
     ALBERT DEFUSCO, TIM DUDLEY, DMITRI FEDOROV, GRAHAM FLETCHER,
     MARK FREITAG, KURT GLAESEMANN, DAN KEMP, GRANT MERRILL,
     NORIYUKI MINEZAWA, JONATHAN MULLIN, TAKESHI NAGATA,
     SEAN NEDD, HEATHER NETZLOFF, BOSILJKA NJEGIC, RYAN OLSON, MIKE PAK,
     JIM SHOEMAKER, LYUDMILA SLIPCHENKO, SAROM SOK, JIE SONG,
     TETSUYA TAKETSUGU, SIMON WEBB, SOOHAENG YOO, FEDERICO ZAHARIEV

  ADDITIONAL CODE HAS BEEN PROVIDED BY COLLABORATORS IN OTHER GROUPS:
     IOWA STATE UNIVERSITY:
          JOE IVANIC, LAIMUTIS BYTAUTAS, KLAUS RUEDENBERG
     UNIVERSITY OF TOKYO: KIMIHIKO HIRAO, TAKAHITO NAKAJIMA,
          TAKAO TSUNEDA, MUNEAKI KAMIYA, SUSUMU YANAGISAWA,
          KIYOSHI YAGI, MAHITO CHIBA, SEIKEN TOKURA, NAOAKI KAWAKAMI
     UNIVERSITY OF AARHUS: FRANK JENSEN
     UNIVERSITY OF IOWA: VISVALDAS KAIRYS, HUI LI
     NATIONAL INST. OF STANDARDS AND TECHNOLOGY: WALT STEVENS, DAVID GARMER
     UNIVERSITY OF PISA: BENEDETTA MENNUCCI, JACOPO TOMASI
     UNIVERSITY OF MEMPHIS: HENRY KURTZ, PRAKASHAN KORAMBATH
     UNIVERSITY OF ALBERTA: TOBY ZENG, MARIUSZ KLOBUKOWSKI
     UNIVERSITY OF NEW ENGLAND: MARK SPACKMAN
     MIE UNIVERSITY: HIROAKI UMEDA
     MICHIGAN STATE UNIVERSITY:
          KAROL KOWALSKI, MARTA WLOCH, JEFFREY GOUR, JESSE LUTZ,
          WEI LI, PIOTR PIECUCH
     UNIVERSITY OF SILESIA: MONIKA MUSIAL, STANISLAW KUCHARSKI
     FACULTES UNIVERSITAIRES NOTRE-DAME DE LA PAIX:
          OLIVIER QUINET, BENOIT CHAMPAGNE
     UNIVERSITY OF CALIFORNIA - SANTA BARBARA: BERNARD KIRTMAN
     INSTITUTE FOR MOLECULAR SCIENCE:
          KAZUYA ISHIMURA, MICHIO KATOUDA, AND SHIGERU NAGASE
     UNIVERSITY OF NOTRE DAME: DAN CHIPMAN
     KYUSHU UNIVERSITY:
          HARUYUKI NAKANO,
          FENG LONG GU, JACEK KORCHOWIEC, MARCIN MAKOWSKI, AND YURIKO AOKI,
          HIROTOSHI MORI AND EISAKU MIYOSHI
     PENNSYLVANIA STATE UNIVERSITY:
          TZVETELIN IORDANOV, CHET SWALINA, JONATHAN SKONE,
          SHARON HAMMES-SCHIFFER
     WASEDA UNIVERSITY:
          MASATO KOBAYASHI, TOMOKO AKAMA, TSUGUKI TOUMA,
          TAKESHI YOSHIKAWA, YASUHIRO IKABATA, HIROMI NAKAI
     NANJING UNIVERSITY: SHUHUA LI
     UNIVERSITY OF NEBRASKA:
          PEIFENG SU, DEJUN SI, NANDUN THELLAMUREGE, YALI WANG, HUI LI
     UNIVERSITY OF ZURICH:
          ROBERTO PEVERATI, KIM BALDRIDGE
     N. COPERNICUS UNIVERSITY AND JACKSON STATE UNIVERSITY:
          MARIA BARYSZ


 PARALLEL VERSION RUNNING ON     2 PROCESSORS IN     2 NODES.

 EXECUTION OF GAMESS BEGUN Tue Feb 16 18:22:38 2016

            ECHO OF THE FIRST FEW INPUT CARDS -
 INPUT CARD> $contrl scftyp=rhf runtyp=optimize maxit=80 icharg=0                           
 INPUT CARD> cctyp=ccsd(t)                                                                  
 INPUT CARD>! внимание это флаг, обозначающий численный расчет градиента(энергии).Аналитичес
 INPUT CARD> numgrd=.t.                                                                     
 INPUT CARD>! mplevl=2                                                                      
 INPUT CARD> itol=30                                                                        
 INPUT CARD> icut=20                                                                        
 INPUT CARD> Inttyp=hondo                                                                   
 INPUT CARD>! это флаг,обеспечивающий использование чистых сферических функций, т.е 5d,7f и 
 INPUT CARD> ispher=+1                                                                      
 INPUT CARD> $end                                                                           
 INPUT CARD> $ccinp maxcc=50 $end                                                           
 INPUT CARD> $system TIMLIM=90000                                                           
 INPUT CARD> mwords=10 memddi=9 $end                                                        
 INPUT CARD> $MP2 CUTOFF=1.0d-20  $END                                                      
 INPUT CARD> $mp2grd tol1=1.0d-20 tol2=1.0d-20 $end                                         
 INPUT CARD> $scf DIIS=.T. SOSCF=.F. dirscf=.t. nconv=7 fdiff=.f. $end                      
 INPUT CARD> $statpt nstep=1000  opttol=1.d-5 projct=.f. hssend=.t. $end                    
 INPUT CARD> $force nvib=2 $end                                                             
 INPUT CARD> $GUESS  GUESS=Huckel $END                                                      
 INPUT CARD> $data                                                                          
 INPUT CARD>                                                                                
 INPUT CARD> dnh 2                                                                          
 INPUT CARD>                                                                                
 INPUT CARD> Ar          18.0  0.0   0. 1.9                                                 
 INPUT CARD>S   13                                                                          
 INPUT CARD>  1 545000.0000000              0.455828D-04                                    
 INPUT CARD>  2  81640.0000000              0.354108D-03                                    
 INPUT CARD>  3  18580.0000000              0.185797D-02                                    
 INPUT CARD>  4   5261.0000000              0.776851D-02                                    
 INPUT CARD>  5   1717.0000000              0.274232D-01                                    
 INPUT CARD>  6    619.9000000              0.823836D-01                                    
 INPUT CARD>  7    241.6000000              0.201230D+00                                    
 INPUT CARD>  8     99.7900000              0.356781D+00                                    
 INPUT CARD>  9     43.1500000              0.349563D+00                                    
 INPUT CARD> 10     19.1400000              0.118266D+00                                    
 INPUT CARD> 11      7.4880000              0.560190D-02                                    
 INPUT CARD> 12      3.2050000              0.483473D-03                                    
 INPUT CARD> 13      0.5204000              0.292025D-04                                    
 INPUT CARD>S   13                                                                          
 INPUT CARD>  1 545000.0000000             -0.129551D-04                                    
 INPUT CARD>  2  81640.0000000             -0.100428D-03                                    
 INPUT CARD>  3  18580.0000000             -0.529583D-03                                    
 INPUT CARD>  4   5261.0000000             -0.221396D-02                                    
 INPUT CARD>  5   1717.0000000             -0.796845D-02                                    
 INPUT CARD>  6    619.9000000             -0.245803D-01                                    
 INPUT CARD>  7    241.6000000             -0.657798D-01                                    
 INPUT CARD>  8     99.7900000             -0.137942D+00                                    
 INPUT CARD>  9     43.1500000             -0.201630D+00                                    
 INPUT CARD> 10     19.1400000             -0.412834D-01                                    
   10000000 WORDS OF MEMORY AVAILABLE


     RUN TITLE
     ---------
                                                                                 

 THE POINT GROUP OF THE MOLECULE IS DNH     
 THE ORDER OF THE PRINCIPAL AXIS IS     2
 *** WARNING! ATOM   1 SHELL    1 TYPE S HAS NORMALIZATION   0.99997554
 *** WARNING! ATOM   1 SHELL    2 TYPE S HAS NORMALIZATION   1.07220538
 *** WARNING! ATOM   1 SHELL    3 TYPE S HAS NORMALIZATION   1.54129149
 *** WARNING! ATOM   1 SHELL    7 TYPE P HAS NORMALIZATION   1.02798298
 *** WARNING! ATOM   1 SHELL    8 TYPE P HAS NORMALIZATION   1.71099417

 ATOM      ATOMIC                      COORDINATES (BOHR)
           CHARGE         X                   Y                   Z
 AR         18.0     0.0000000000        0.0000000000       -3.5904793767
 AR         18.0     0.0000000000        0.0000000000        3.5904793767

          INTERNUCLEAR DISTANCES (ANGS.)
          ------------------------------

                1 AR         2 AR    

   1 AR      0.0000000    3.8000000  
   2 AR      3.8000000    0.0000000  

  * ... LESS THAN  3.000


     ATOMIC BASIS SET
     ----------------
 THE CONTRACTED PRIMITIVE FUNCTIONS HAVE BEEN UNNORMALIZED
 THE CONTRACTED BASIS FUNCTIONS ARE NOW NORMALIZED TO UNITY

  SHELL TYPE  PRIMITIVE        EXPONENT          CONTRACTION COEFFICIENT(S)

 AR        

     17   S       1        545000.0000000    0.000045581685
     17   S       2         81640.0000000    0.000354099339
     17   S       3         18580.0000000    0.001857924557
     17   S       4          5261.0000000    0.007768319993
     17   S       5          1717.0000000    0.027422529266
     17   S       6           619.9000000    0.082381585008
     17   S       7           241.6000000    0.201225078186
     17   S       8            99.7900000    0.356772273619
     17   S       9            43.1500000    0.349554450161
     17   S      10            19.1400000    0.118263107373
     17   S      11             7.4880000    0.005601762985
     17   S      12             3.2050000    0.000483461175
     17   S      13             0.5204000    0.000029201786

     18   S      14        545000.0000000   -0.000013890528
     18   S      15         81640.0000000   -0.000107679442
     18   S      16         18580.0000000   -0.000567821742
     18   S      17          5261.0000000   -0.002373819825
     18   S      18          1717.0000000   -0.008543814967
     18   S      19           619.9000000   -0.026355129922
     18   S      20           241.6000000   -0.070529455508
     18   S      21            99.7900000   -0.147902154639
     18   S      22            43.1500000   -0.216188770932
     18   S      23            19.1400000   -0.044264283618
     18   S      24             7.4880000    0.519676503969
     18   S      25             3.2050000    0.621047089492
     18   S      26             0.5204000   -0.007800862414

     19   S      27        545000.0000000    0.000006242076
     19   S      28         81640.0000000    0.000048348927
     19   S      29         18580.0000000    0.000255308769
     19   S      30          5261.0000000    0.001066052752
     19   S      31          1717.0000000    0.003849992002
     19   S      32           619.9000000    0.011884497912
     19   S      33           241.6000000    0.032168911118
     19   S      34            99.7900000    0.068427947451
     19   S      35            43.1500000    0.104842345967
     19   S      36            19.1400000    0.021786155152
     19   S      37             7.4880000   -0.319801029107
     19   S      38             3.2050000   -0.655118239602
     19   S      39             0.5204000    1.130733048888

     20   S      40             1.1960000    1.000000000000

     21   S      41             0.1954000    1.000000000000

     22   S      42             0.0685000    1.000000000000

     23   P      43           761.8000000    0.002436072940
     23   P      44           180.2000000    0.019552133427
     23   P      45            57.5000000    0.090545460215
     23   P      46            21.2400000    0.263551191731
     23   P      47             8.3880000    0.450987439886
     23   P      48             3.4160000    0.357295015383
     23   P      49             0.4523000   -0.005385417780

     24   P      50           761.8000000   -0.001141594132
     24   P      51           180.2000000   -0.009114756820
     24   P      52            57.5000000   -0.043714874484
     24   P      53            21.2400000   -0.129555965365
     24   P      54             8.3880000   -0.241477740401
     24   P      55             3.4160000   -0.159596061133
     24   P      56             0.4523000    0.962348671739

     25   P      57             1.2060000    1.000000000000

     26   P      58             0.1545000    1.000000000000

     27   P      59             0.0487000    1.000000000000

     28   D      60             0.4100000    1.000000000000

     29   D      61             1.2540000    1.000000000000

     30   D      62             0.1690000    1.000000000000

     31   F      63             0.8900000    1.000000000000

     32   F      64             0.4060000    1.000000000000

 TOTAL NUMBER OF BASIS SET SHELLS             =   32
 NUMBER OF CARTESIAN GAUSSIAN BASIS FUNCTIONS =  118
 NOTE: THIS RUN WILL RESTRICT THE MO VARIATION SPACE TO SPHERICAL HARMONICS.
 THE NUMBER OF ORBITALS KEPT IN THE VARIATIONAL SPACE WILL BE PRINTED LATER.
 NUMBER OF ELECTRONS                          =   36
 CHARGE OF MOLECULE                           =    0
 SPIN MULTIPLICITY                            =    1
 NUMBER OF OCCUPIED ORBITALS (ALPHA)          =   18
 NUMBER OF OCCUPIED ORBITALS (BETA )          =   18
 TOTAL NUMBER OF ATOMS                        =    2
 THE NUCLEAR REPULSION ENERGY IS       45.1193233563

 THIS MOLECULE IS RECOGNIZED AS BEING LINEAR,
 ORBITAL LZ DEGENERACY TOLERANCE ETOLLZ= 1.00E-06

     $NEO OPTIONS
     ------------
     NUNIQN=       0     BASNUC=DZSNB        NEOSCF=NONE    
     NEOCI =NONE         NUMULT=       2     NUCST =       1
     NAUXNB=       0     VNUCEX=       F     NUCOPT=       F
     NTAUXB=       0     NEOHSS=       F     HSSINI=READH   
     HSSUPD=POWELLUP     DIRNUC=       F     SYMNUC=       F
     QMTOLN= 0.0E+00     USRDEX=       F
     POSNEO=       F     POSPRP=       F
     NEONCI=       F     LOCORB=       0

     $CONTRL OPTIONS
     ---------------
 SCFTYP=RHF          RUNTYP=OPTIMIZE     EXETYP=RUN     
 MPLEVL=       0     CITYP =NONE         CCTYP =CCSD(T)      VBTYP =NONE    
 DFTTYP=NONE         TDDFT =NONE    
 MULT  =       1     ICHARG=       0     NZVAR =       0     COORD =UNIQUE  
 PP    =NONE         RELWFN=NONE         LOCAL =NONE         NUMGRD=       T
 ISPHER=       1     NOSYM =       0     MAXIT =      80     UNITS =ANGS    
 PLTORB=       F     MOLPLT=       F     AIMPAC=       F     FRIEND=        
 NPRINT=       7     IREST =       0     GEOM  =INPUT   
 NORMF =       0     NORMP =       0     ITOL  =      30     ICUT  =      20
 INTTYP=BEST         GRDTYP=BEST         QMTTOL= 1.0E-06

     $SYSTEM OPTIONS
     ---------------
  REPLICATED MEMORY=    10000000 WORDS (ON EVERY NODE).
 DISTRIBUTED MEMDDI=           9 MILLION WORDS IN AGGREGATE,
 MEMDDI DISTRIBUTED OVER   2 PROCESSORS IS     4500000 WORDS/PROCESSOR.
 TOTAL MEMORY REQUESTED ON EACH PROCESSOR=    14500000 WORDS.
 TIMLIM=       90000.00 MINUTES, OR      62.5 DAYS.
 PARALL= T  BALTYP=  DLB     KDIAG=    0  COREFL= F
 MXSEQ2=     300 MXSEQ3=     150

          ----------------
          PROPERTIES INPUT
          ----------------

     MOMENTS            FIELD           POTENTIAL          DENSITY
 IEMOM =       1   IEFLD =       0   IEPOT =       0   IEDEN =       0
 WHERE =COMASS     WHERE =NUCLEI     WHERE =NUCLEI     WHERE =NUCLEI  
 OUTPUT=BOTH       OUTPUT=BOTH       OUTPUT=BOTH       OUTPUT=BOTH    
 IEMINT=       0   IEFINT=       0                     IEDINT=       0
                                                       MORB  =       0
          EXTRAPOLATION IN EFFECT
          DIIS IN EFFECT
 ORBITAL PRINTING OPTION: NPREO=     1   118     2     1

     -------------------------------
     INTEGRAL TRANSFORMATION OPTIONS
     -------------------------------
     NWORD  =            0
     CUTOFF = 1.0E-09     MPTRAN =       0
     DIRTRF =       T     AOINTS =DUP     

          ----------------------
          INTEGRAL INPUT OPTIONS
          ----------------------
 NOPK  =       1 NORDER=       0 SCHWRZ=       T

     ------------------------------------------
     THE POINT GROUP IS DNH, NAXIS= 2, ORDER= 8
     ------------------------------------------

 -- VARIATIONAL SPACE WILL BE RESTRICTED TO PURE SPHERICAL HARMONICS ONLY --
 AFTER EXCLUDING CONTAMINANT COMBINATIONS FROM THE CARTESIAN GAUSSIAN BASIS
 SET, THE NUMBER OF SPHERICAL HARMONICS KEPT IN THE VARIATION SPACE IS  100

     DIMENSIONS OF THE SYMMETRY SUBSPACES ARE
 AG  =   21     AU  =    5     B3U =   12     B3G =   12     B1G =    5
 B1U =   21     B2U =   12     B2G =   12

 ..... DONE SETTING UP THE RUN .....
 CPU     0: STEP CPU TIME=     0.02 TOTAL CPU TIME=        0.0 (    0.0 MIN)
 TOTAL WALL CLOCK TIME=        0.0 SECONDS, CPU UTILIZATION IS 100.01%


          -----------------------------
          STATIONARY POINT LOCATION RUN
          -----------------------------

 OBTAINING INITIAL HESSIAN, HESS=GUESS   
 CARTESIAN COORDINATE OPTIMIZATION USING BADGER'S RULE FORCE CONSTANT GUESS

          PARAMETERS CONTROLLING GEOMETRY SEARCH ARE
          METHOD =QA                  UPHESS =BFGS    
          NNEG   =         0          NFRZ   =         0
          NSTEP  =      1000          IFOLOW =         1
          HESS   =GUESS               RESTAR =         F
          IHREP  =         0          HSSEND =         T
          NPRT   =         0          NPUN   =         0
          OPTTOL = 1.000E-05          RMIN   = 1.500E-03
          RMAX   = 1.000E-01          RLIM   = 7.000E-02
          DXMAX  = 3.000E-01          PURIFY =         F
          MOVIE  =         F          TRUPD  =         T
          TRMAX  = 5.000E-01          TRMIN  = 5.000E-02
          ITBMAT =         5          STPT   =         F
          STSTEP = 1.000E-02          PROJCT=          F

 BEGINNING GEOMETRY SEARCH POINT NSERCH=   0 ...

 COORDINATES OF SYMMETRY UNIQUE ATOMS (ANGS)
   ATOM   CHARGE       X              Y              Z
 ------------------------------------------------------------
 AR         18.0   0.0000000000   0.0000000000   1.9000000000
 COORDINATES OF ALL ATOMS ARE (ANGS)
   ATOM   CHARGE       X              Y              Z
 ------------------------------------------------------------
 AR         18.0   0.0000000000   0.0000000000  -1.9000000000
 AR         18.0   0.0000000000   0.0000000000   1.9000000000

          ********************
          1 ELECTRON INTEGRALS
          ********************
 ...... END OF ONE-ELECTRON INTEGRALS ......
 CPU     0: STEP CPU TIME=     0.00 TOTAL CPU TIME=        0.0 (    0.0 MIN)
 TOTAL WALL CLOCK TIME=        0.0 SECONDS, CPU UTILIZATION IS 100.01%

          -------------
          GUESS OPTIONS
          -------------
          GUESS =HUCKEL            NORB  =       0          NORDER=       0
          MIX   =       F          PRTMO =       F          PUNMO =       F
          TOLZ  = 1.0E-08          TOLE  = 1.0E-05
          SYMDEN=       F          PURIFY=       F

 INITIAL GUESS ORBITALS GENERATED BY HUCKEL   ROUTINE.
 HUCKEL GUESS REQUIRES    103664 WORDS.

 STATISTICS FOR GENERATION OF SYMMETRY ORBITAL -Q- MATRIX
 NUMBER OF CARTESIAN ATOMIC ORBITALS=        118
 NUMBER OF SPHERICAL CONTAMINANTS DROPPED=    18
 NUMBER OF LINEARLY DEPENDENT MOS DROPPED=     0
 TOTAL NUMBER OF MOS IN VARIATION SPACE=     100

 SYMMETRIES FOR INITIAL GUESS ORBITALS FOLLOW.   BOTH SET(S).
    18 ORBITALS ARE OCCUPIED (   10 CORE ORBITALS).
    11=AG      12=B1U     13=AG      14=B2U     15=B3U     16=B2G     17=B3G 
    18=B1U     19=AG      20=AG      21=AG      22=AG      23=AG      24=AG  
    25=AG      26=AG      27=AG      28=AG  
 ...... END OF INITIAL ORBITAL SELECTION ......
 CPU     0: STEP CPU TIME=     0.01 TOTAL CPU TIME=        0.0 (    0.0 MIN)
 TOTAL WALL CLOCK TIME=        0.0 SECONDS, CPU UTILIZATION IS 100.00%

                    ----------------------
                    AO INTEGRAL TECHNOLOGY
                    ----------------------
     S,P,L SHELL ROTATED AXIS INTEGRALS, REPROGRAMMED BY
        KAZUYA ISHIMURA (IMS) AND JOSE SIERRA (SYNSTAR).
     S,P,D,L SHELL ROTATED AXIS INTEGRALS PROGRAMMED BY
        KAZUYA ISHIMURA (INSTITUTE FOR MOLECULAR SCIENCE).
     S,P,D,F,G SHELL TO TOTAL QUARTET ANGULAR MOMENTUM SUM 5,
        ERIC PROGRAM BY GRAHAM FLETCHER (ELORET AND NASA ADVANCED
        SUPERCOMPUTING DIVISION, AMES RESEARCH CENTER).
     S,P,D,F,G,L SHELL GENERAL RYS QUADRATURE PROGRAMMED BY
        MICHEL DUPUIS (PACIFIC NORTHWEST NATIONAL LABORATORY).

          --------------------
          2 ELECTRON INTEGRALS
          --------------------

 DIRECT SCF METHOD SKIPS INTEGRAL STORAGE ON DISK.
 DIRECT TRANSFORMATION SKIPS AO INTEGRAL STORAGE ON DISK.
  ...... END OF TWO-ELECTRON INTEGRALS .....
 CPU     0: STEP CPU TIME=     0.03 TOTAL CPU TIME=        0.1 (    0.0 MIN)
 TOTAL WALL CLOCK TIME=        0.1 SECONDS, CPU UTILIZATION IS 100.00%

          --------------------------
                 RHF SCF CALCULATION
          --------------------------

     NUCLEAR ENERGY =        45.1193233563
     MAXIT =   80     NPUNCH=    2
     EXTRAP=T  DAMP=F  SHIFT=F  RSTRCT=F  DIIS=T  DEM=F  SOSCF=F
     DENSITY MATRIX CONV=  2.00E-07
     MEMORY REQUIRED FOR RHF ITERS=    157816 WORDS.

 DIRECT SCF CALCULATION, SCHWRZ=T   FDIFF=F,  DIRTHR=  0.00E+00 NITDIR=10
 SCHWARZ INEQUALITY OVERHEAD:      7021 INTEGRALS, T=        0.01

                                                                                   NONZERO     BLOCKS
 ITER EX DEM     TOTAL ENERGY        E CHANGE  DENSITY CHANGE    DIIS ERROR      INTEGRALS    SKIPPED
   1  0  0    -1053.2976033302 -1053.2976033302   0.165217739   3.365397919        3133626        774
          * * *   INITIATING DIIS PROCEDURE   * * *
   2  1  0    -1053.6255691057    -0.3279657755   0.024746851   0.048037589        3130978        932
   3  2  0    -1053.6263251068    -0.0007560012   0.001481648   0.003257837        3130657        995
   4  3  0    -1053.6263680302    -0.0000429233   0.000618014   0.000944798        3130008        988
   5  4  0    -1053.6263696481    -0.0000016180   0.000127557   0.000063205        3129998        991
   6  5  0    -1053.6263696770    -0.0000000288   0.000017065   0.000006653        3130004        989
   7  6  0    -1053.6263696773    -0.0000000003   0.000000448   0.000000518        3130004        989
   8  7  0    -1053.6263696773     0.0000000000   0.000000132   0.000000150        3130004        989
   9  8  0    -1053.6263696773     0.0000000000   0.000000028   0.000000060        3130004        989

 RHF HAS CONVERGED, NOW COMPUTING EXACT TOTAL FOCK MATRIX
 FOR USE DURING THE COUPLED CLUSTER CALCULATION THAT FOLLOWS.

          -----------------
          DENSITY CONVERGED
          -----------------
     TIME TO FORM FOCK OPERATORS=       5.2 SECONDS (       0.6 SEC/ITER)
     FOCK TIME ON FIRST ITERATION=       0.6, LAST ITERATION=       0.6
     TIME TO SOLVE SCF EQUATIONS=       0.0 SECONDS (       0.0 SEC/ITER)

 FINAL RHF ENERGY IS    -1053.6263696773 AFTER   9 ITERATIONS

 LZ VALUE ANALYSIS FOR THE MOS
 ----------------------------------------
 MO     1 (    1) HAS LZ(WEIGHT)= 0.00(100.0%) 
 MO     2 (    1) HAS LZ(WEIGHT)= 0.00(100.0%) 
 MO     3 (    2) HAS LZ(WEIGHT)= 0.00(100.0%) 
 MO     4 (    2) HAS LZ(WEIGHT)= 0.00(100.0%) 
 MO     5 (    3) HAS LZ(WEIGHT)=-1.00( 49.8%)  1.00( 49.8%) 
 MO     6 (    3) HAS LZ(WEIGHT)=-1.00( 49.8%)  1.00( 49.8%) 
 MO     7 (    3) HAS LZ(WEIGHT)=-1.00( 49.8%)  1.00( 49.8%) 
 MO     8 (    3) HAS LZ(WEIGHT)=-1.00( 49.8%)  1.00( 49.8%) 
 MO     9 (    4) HAS LZ(WEIGHT)= 0.00(100.0%) 
 MO    10 (    5) HAS LZ(WEIGHT)= 0.00(100.0%) 
 MO    11 (    6) HAS LZ(WEIGHT)= 0.00(100.0%) 
 MO    12 (    7) HAS LZ(WEIGHT)= 0.00(100.0%) 
 MO    13 (    8) HAS LZ(WEIGHT)= 0.00(100.0%) 
 MO    14 (    9) HAS LZ(WEIGHT)=-1.00( 50.0%)  1.00( 50.0%) 
 MO    15 (    9) HAS LZ(WEIGHT)=-1.00( 50.0%)  1.00( 50.0%) 
 MO    16 (   10) HAS LZ(WEIGHT)=-1.00( 50.0%)  1.00( 50.0%) 
 MO    17 (   10) HAS LZ(WEIGHT)=-1.00( 50.0%)  1.00( 50.0%) 
 MO    18 (   11) HAS LZ(WEIGHT)= 0.00(100.0%) 
 MO    19 (   12) HAS LZ(WEIGHT)= 0.00(100.0%) 
 MO    20 (   13) HAS LZ(WEIGHT)=-1.00( 50.0%)  1.00( 50.0%) 
 MO    21 (   13) HAS LZ(WEIGHT)=-1.00( 50.0%)  1.00( 50.0%) 
 MO    22 (   14) HAS LZ(WEIGHT)= 0.00(100.0%) 
 MO    23 (   15) HAS LZ(WEIGHT)=-1.00( 50.0%)  1.00( 50.0%) 
 MO    24 (   15) HAS LZ(WEIGHT)=-1.00( 50.0%)  1.00( 50.0%) 
 MO    25 (   16) HAS LZ(WEIGHT)= 0.00(100.0%) 
 MO    26 (   17) HAS LZ(WEIGHT)= 0.00(100.0%) 
 MO    27 (   18) HAS LZ(WEIGHT)=-1.00( 50.0%)  1.00( 50.0%) 
 MO    28 (   18) HAS LZ(WEIGHT)=-1.00( 50.0%)  1.00( 50.0%) 
 MO    29 (   19) HAS LZ(WEIGHT)= 0.00(100.0%) 
 MO    30 (   20) HAS LZ(WEIGHT)=-2.00( 50.0%)  2.00( 50.0%) 
 MO    31 (   20) HAS LZ(WEIGHT)=-2.00( 50.0%)  2.00( 50.0%) 
 MO    32 (   21) HAS LZ(WEIGHT)=-2.00( 50.0%)  2.00( 50.0%) 
 MO    33 (   21) HAS LZ(WEIGHT)=-2.00( 50.0%)  2.00( 50.0%) 
 MO    34 (   22) HAS LZ(WEIGHT)=-1.00( 50.0%)  1.00( 50.0%) 
 MO    35 (   22) HAS LZ(WEIGHT)=-1.00( 50.0%)  1.00( 50.0%) 
 MO    36 (   23) HAS LZ(WEIGHT)= 0.00(100.0%) 
 MO    37 (   24) HAS LZ(WEIGHT)= 0.00(100.0%) 
 MO    38 (   25) HAS LZ(WEIGHT)=-1.00( 50.0%)  1.00( 50.0%) 
 MO    39 (   25) HAS LZ(WEIGHT)=-1.00( 50.0%)  1.00( 50.0%) 
 MO    40 (   26) HAS LZ(WEIGHT)=-1.00( 50.0%)  1.00( 50.0%) 
 MO    41 (   26) HAS LZ(WEIGHT)=-1.00( 50.0%)  1.00( 50.0%) 
 MO    42 (   27) HAS LZ(WEIGHT)= 0.00(100.0%) 
 MO    43 (   28) HAS LZ(WEIGHT)=-1.00( 50.0%)  1.00( 50.0%) 
 MO    44 (   28) HAS LZ(WEIGHT)=-1.00( 50.0%)  1.00( 50.0%) 
 MO    45 (   29) HAS LZ(WEIGHT)= 0.00(100.0%) 
 MO    46 (   30) HAS LZ(WEIGHT)=-2.00( 50.0%)  2.00( 50.0%) 
 MO    47 (   30) HAS LZ(WEIGHT)=-2.00( 50.0%)  2.00( 50.0%) 
 MO    48 (   31) HAS LZ(WEIGHT)=-2.00( 50.0%)  2.00( 50.0%) 
 MO    49 (   31) HAS LZ(WEIGHT)=-2.00( 50.0%)  2.00( 50.0%) 
 MO    50 (   32) HAS LZ(WEIGHT)= 0.00(100.0%) 
 MO    51 (   33) HAS LZ(WEIGHT)=-1.00( 50.0%)  1.00( 50.0%) 
 MO    52 (   33) HAS LZ(WEIGHT)=-1.00( 50.0%)  1.00( 50.0%) 
 MO    53 (   34) HAS LZ(WEIGHT)= 0.00(100.0%) 
 MO    54 (   35) HAS LZ(WEIGHT)= 0.00(100.0%) 
 MO    55 (   36) HAS LZ(WEIGHT)= 0.00(100.0%) 
 MO    56 (   37) HAS LZ(WEIGHT)=-1.00( 50.0%)  1.00( 50.0%) 
 MO    57 (   37) HAS LZ(WEIGHT)=-1.00( 50.0%)  1.00( 50.0%) 
 MO    58 (   38) HAS LZ(WEIGHT)=-2.00( 50.0%)  2.00( 50.0%) 
 MO    59 (   38) HAS LZ(WEIGHT)=-2.00( 50.0%)  2.00( 50.0%) 
 MO    60 (   39) HAS LZ(WEIGHT)=-3.00( 50.0%)  3.00( 50.0%) 
 MO    61 (   39) HAS LZ(WEIGHT)=-3.00( 50.0%)  3.00( 50.0%) 
 MO    62 (   40) HAS LZ(WEIGHT)=-3.00( 50.0%)  3.00( 50.0%) 
 MO    63 (   40) HAS LZ(WEIGHT)=-3.00( 50.0%)  3.00( 50.0%) 
 MO    64 (   41) HAS LZ(WEIGHT)=-2.00( 50.0%)  2.00( 50.0%) 
 MO    65 (   41) HAS LZ(WEIGHT)=-2.00( 50.0%)  2.00( 50.0%) 
 MO    66 (   42) HAS LZ(WEIGHT)=-1.00( 50.0%)  1.00( 50.0%) 
 MO    67 (   42) HAS LZ(WEIGHT)=-1.00( 50.0%)  1.00( 50.0%) 
 MO    68 (   43) HAS LZ(WEIGHT)= 0.00(100.0%) 
 MO    69 (   44) HAS LZ(WEIGHT)=-1.00( 50.0%)  1.00( 50.0%) 
 MO    70 (   44) HAS LZ(WEIGHT)=-1.00( 50.0%)  1.00( 50.0%) 
 MO    71 (   45) HAS LZ(WEIGHT)=-2.00( 50.0%)  2.00( 50.0%) 
 MO    72 (   45) HAS LZ(WEIGHT)=-2.00( 50.0%)  2.00( 50.0%) 
 MO    73 (   46) HAS LZ(WEIGHT)=-2.00( 50.0%)  2.00( 50.0%) 
 MO    74 (   46) HAS LZ(WEIGHT)=-2.00( 50.0%)  2.00( 50.0%) 
 MO    75 (   47) HAS LZ(WEIGHT)= 0.00(100.0%) 
 MO    76 (   48) HAS LZ(WEIGHT)=-1.00( 50.0%)  1.00( 50.0%) 
 MO    77 (   48) HAS LZ(WEIGHT)=-1.00( 50.0%)  1.00( 50.0%) 
 MO    78 (   49) HAS LZ(WEIGHT)= 0.00(100.0%) 
 MO    79 (   50) HAS LZ(WEIGHT)=-1.00( 50.0%)  1.00( 50.0%) 
 MO    80 (   50) HAS LZ(WEIGHT)=-1.00( 50.0%)  1.00( 50.0%) 
 MO    81 (   51) HAS LZ(WEIGHT)= 0.00(100.0%) 
 MO    82 (   52) HAS LZ(WEIGHT)=-1.00( 50.0%)  1.00( 50.0%) 
 MO    83 (   52) HAS LZ(WEIGHT)=-1.00( 50.0%)  1.00( 50.0%) 
 MO    84 (   53) HAS LZ(WEIGHT)= 0.00(100.0%) 
 MO    85 (   54) HAS LZ(WEIGHT)= 0.00(100.0%) 
 MO    86 (   55) HAS LZ(WEIGHT)=-1.00( 50.0%)  1.00( 50.0%) 
 MO    87 (   55) HAS LZ(WEIGHT)=-1.00( 50.0%)  1.00( 50.0%) 
 MO    88 (   56) HAS LZ(WEIGHT)=-2.00( 50.0%)  2.00( 50.0%) 
 MO    89 (   56) HAS LZ(WEIGHT)=-2.00( 50.0%)  2.00( 50.0%) 
 MO    90 (   57) HAS LZ(WEIGHT)=-3.00( 50.0%)  3.00( 50.0%) 
 MO    91 (   57) HAS LZ(WEIGHT)=-3.00( 50.0%)  3.00( 50.0%) 
 MO    92 (   58) HAS LZ(WEIGHT)=-3.00( 50.0%)  3.00( 50.0%) 
 MO    93 (   58) HAS LZ(WEIGHT)=-3.00( 50.0%)  3.00( 50.0%) 
 MO    94 (   59) HAS LZ(WEIGHT)=-2.00( 50.0%)  2.00( 50.0%) 
 MO    95 (   59) HAS LZ(WEIGHT)=-2.00( 50.0%)  2.00( 50.0%) 
 MO    96 (   60) HAS LZ(WEIGHT)=-1.00( 50.0%)  1.00( 50.0%) 
 MO    97 (   60) HAS LZ(WEIGHT)=-1.00( 50.0%)  1.00( 50.0%) 
 MO    98 (   61) HAS LZ(WEIGHT)= 0.00(100.0%) 
 MO    99 (   62) HAS LZ(WEIGHT)= 0.00(100.0%) 
 MO   100 (   63) HAS LZ(WEIGHT)= 0.00(100.0%) 

          ------------
          EIGENVECTORS
          ------------

                      1          2          3          4          5
                 -118.6117  -118.6117   -12.3229   -12.3229    -9.5718
                     B1U        AG         B1U        AG         B3G 
    1  AR 1  S    0.707125   0.707124  -0.000088  -0.000073   0.000000
    2  AR 1  S    0.000005   0.000004   0.659002   0.659085   0.000000
    3  AR 1  S    0.000007   0.000005  -0.000562  -0.000468   0.000000
    4  AR 1  S   -0.000107  -0.000106   0.062365   0.062333   0.000000
    5  AR 1  S   -0.000027  -0.000024   0.002561   0.002346   0.000000
    6  AR 1  S    0.000009   0.000005  -0.000730  -0.000430   0.000000
    7  AR 1  X    0.000000   0.000000   0.000000   0.000000   0.000000
    8  AR 1  Y    0.000000   0.000000   0.000000   0.000000   0.687663
    9  AR 1  Z    0.000000   0.000000  -0.000017  -0.000008   0.000000
   10  AR 1  X    0.000000   0.000000   0.000000   0.000000   0.000000
   11  AR 1  Y    0.000000   0.000000   0.000000   0.000000  -0.000355
   12  AR 1  Z    0.000000   0.000000  -0.000015  -0.000001   0.000000
   13  AR 1  X    0.000000   0.000000   0.000000   0.000000   0.000000
   14  AR 1  Y    0.000000   0.000000   0.000000   0.000000   0.040204
   15  AR 1  Z    0.000000   0.000000   0.000006  -0.000003   0.000000
   16  AR 1  X    0.000000   0.000000   0.000000   0.000000   0.000000
   17  AR 1  Y    0.000000   0.000000   0.000000   0.000000   0.001710
   18  AR 1  Z    0.000000   0.000000   0.000033   0.000020   0.000000
   19  AR 1  X    0.000000   0.000000   0.000000   0.000000   0.000000
   20  AR 1  Y    0.000000   0.000000   0.000000   0.000000  -0.000572
   21  AR 1  Z    0.000003   0.000000  -0.000196  -0.000005   0.000000
   22  AR 1 XX    0.000000   0.000000  -0.000017  -0.000013   0.000000
   23  AR 1 YY    0.000000   0.000000  -0.000017  -0.000013   0.000000
   24  AR 1 ZZ   -0.000001   0.000000   0.000035   0.000026   0.000000
   25  AR 1 XY    0.000000   0.000000   0.000000   0.000000   0.000000
   26  AR 1 XZ    0.000000   0.000000   0.000000   0.000000   0.000000
   27  AR 1 YZ    0.000000   0.000000   0.000000   0.000000   0.000006
   28  AR 1 XX    0.000000   0.000000   0.000005   0.000004   0.000000
   29  AR 1 YY    0.000000   0.000000   0.000005   0.000004   0.000000
   30  AR 1 ZZ    0.000000   0.000000  -0.000009  -0.000009   0.000000
   31  AR 1 XY    0.000000   0.000000   0.000000   0.000000   0.000000
   32  AR 1 XZ    0.000000   0.000000   0.000000   0.000000   0.000000
   33  AR 1 YZ    0.000000   0.000000   0.000000   0.000000  -0.000002
   34  AR 1 XX   -0.000001   0.000000   0.000036   0.000012   0.000000
   35  AR 1 YY   -0.000001   0.000000   0.000036   0.000012   0.000000
   36  AR 1 ZZ    0.000001   0.000000  -0.000072  -0.000024   0.000000
   37  AR 1 XY    0.000000   0.000000   0.000000   0.000000   0.000000
   38  AR 1 XZ    0.000000   0.000000   0.000000   0.000000   0.000000
   39  AR 1 YZ    0.000000   0.000000   0.000000   0.000000  -0.000018
   40  AR 1 XXX   0.000000   0.000000   0.000000   0.000000   0.000000
   41  AR 1 YYY   0.000000   0.000000   0.000000   0.000000   0.000002
   42  AR 1 ZZZ   0.000000   0.000000   0.000002   0.000005   0.000000
   43  AR 1 XXY   0.000000   0.000000   0.000000   0.000000   0.000001
   44  AR 1 XXZ   0.000000   0.000000  -0.000002  -0.000003   0.000000
   45  AR 1 YYX   0.000000   0.000000   0.000000   0.000000   0.000000
   46  AR 1 YYZ   0.000000   0.000000  -0.000002  -0.000003   0.000000
   47  AR 1 ZZX   0.000000   0.000000   0.000000   0.000000   0.000000
   48  AR 1 ZZY   0.000000   0.000000   0.000000   0.000000  -0.000004
   49  AR 1 XYZ   0.000000   0.000000   0.000000   0.000000   0.000000
   50  AR 1 XXX   0.000000   0.000000   0.000000   0.000000   0.000000
   51  AR 1 YYY   0.000000   0.000000   0.000000   0.000000  -0.000003
   52  AR 1 ZZZ   0.000000   0.000000  -0.000006  -0.000007   0.000000
   53  AR 1 XXY   0.000000   0.000000   0.000000   0.000000  -0.000001
   54  AR 1 XXZ   0.000000   0.000000   0.000004   0.000004   0.000000
   55  AR 1 YYX   0.000000   0.000000   0.000000   0.000000   0.000000
   56  AR 1 YYZ   0.000000   0.000000   0.000004   0.000004   0.000000
   57  AR 1 ZZX   0.000000   0.000000   0.000000   0.000000   0.000000
   58  AR 1 ZZY   0.000000   0.000000   0.000000   0.000000   0.000006
   59  AR 1 XYZ   0.000000   0.000000   0.000000   0.000000   0.000000
   60  AR 2  S   -0.707125   0.707124   0.000088  -0.000073   0.000000
   61  AR 2  S   -0.000005   0.000004  -0.659002   0.659085   0.000000
   62  AR 2  S   -0.000007   0.000005   0.000562  -0.000468   0.000000
   63  AR 2  S    0.000107  -0.000106  -0.062365   0.062333   0.000000
   64  AR 2  S    0.000027  -0.000024  -0.002561   0.002346   0.000000
   65  AR 2  S   -0.000009   0.000005   0.000730  -0.000430   0.000000
   66  AR 2  X    0.000000   0.000000   0.000000   0.000000   0.000000
   67  AR 2  Y    0.000000   0.000000   0.000000   0.000000  -0.687663
   68  AR 2  Z    0.000000   0.000000  -0.000017   0.000008   0.000000
   69  AR 2  X    0.000000   0.000000   0.000000   0.000000   0.000000
   70  AR 2  Y    0.000000   0.000000   0.000000   0.000000   0.000355
   71  AR 2  Z    0.000000   0.000000  -0.000015   0.000001   0.000000
   72  AR 2  X    0.000000   0.000000   0.000000   0.000000   0.000000
   73  AR 2  Y    0.000000   0.000000   0.000000   0.000000  -0.040204
   74  AR 2  Z    0.000000   0.000000   0.000006   0.000003   0.000000
   75  AR 2  X    0.000000   0.000000   0.000000   0.000000   0.000000
   76  AR 2  Y    0.000000   0.000000   0.000000   0.000000  -0.001710
   77  AR 2  Z    0.000000   0.000000   0.000033  -0.000020   0.000000
   78  AR 2  X    0.000000   0.000000   0.000000   0.000000   0.000000
   79  AR 2  Y    0.000000   0.000000   0.000000   0.000000   0.000572
   80  AR 2  Z    0.000003   0.000000  -0.000196   0.000005   0.000000
   81  AR 2 XX    0.000000   0.000000   0.000017  -0.000013   0.000000
   82  AR 2 YY    0.000000   0.000000   0.000017  -0.000013   0.000000
   83  AR 2 ZZ    0.000001   0.000000  -0.000035   0.000026   0.000000
   84  AR 2 XY    0.000000   0.000000   0.000000   0.000000   0.000000
   85  AR 2 XZ    0.000000   0.000000   0.000000   0.000000   0.000000
   86  AR 2 YZ    0.000000   0.000000   0.000000   0.000000   0.000006
   87  AR 2 XX    0.000000   0.000000  -0.000005   0.000004   0.000000
   88  AR 2 YY    0.000000   0.000000  -0.000005   0.000004   0.000000
   89  AR 2 ZZ    0.000000   0.000000   0.000009  -0.000009   0.000000
   90  AR 2 XY    0.000000   0.000000   0.000000   0.000000   0.000000
   91  AR 2 XZ    0.000000   0.000000   0.000000   0.000000   0.000000
   92  AR 2 YZ    0.000000   0.000000   0.000000   0.000000  -0.000002
   93  AR 2 XX    0.000001   0.000000  -0.000036   0.000012   0.000000
   94  AR 2 YY    0.000001   0.000000  -0.000036   0.000012   0.000000
   95  AR 2 ZZ   -0.000001   0.000000   0.000072  -0.000024   0.000000
   96  AR 2 XY    0.000000   0.000000   0.000000   0.000000   0.000000
   97  AR 2 XZ    0.000000   0.000000   0.000000   0.000000   0.000000
   98  AR 2 YZ    0.000000   0.000000   0.000000   0.000000  -0.000018
   99  AR 2 XXX   0.000000   0.000000   0.000000   0.000000   0.000000
  100  AR 2 YYY   0.000000   0.000000   0.000000   0.000000  -0.000002
  101  AR 2 ZZZ   0.000000   0.000000   0.000002  -0.000005   0.000000
  102  AR 2 XXY   0.000000   0.000000   0.000000   0.000000  -0.000001
  103  AR 2 XXZ   0.000000   0.000000  -0.000002   0.000003   0.000000
  104  AR 2 YYX   0.000000   0.000000   0.000000   0.000000   0.000000
  105  AR 2 YYZ   0.000000   0.000000  -0.000002   0.000003   0.000000
  106  AR 2 ZZX   0.000000   0.000000   0.000000   0.000000   0.000000
  107  AR 2 ZZY   0.000000   0.000000   0.000000   0.000000   0.000004
  108  AR 2 XYZ   0.000000   0.000000   0.000000   0.000000   0.000000
  109  AR 2 XXX   0.000000   0.000000   0.000000   0.000000   0.000000
  110  AR 2 YYY   0.000000   0.000000   0.000000   0.000000   0.000003
  111  AR 2 ZZZ   0.000000   0.000000  -0.000006   0.000007   0.000000
  112  AR 2 XXY   0.000000   0.000000   0.000000   0.000000   0.000001
  113  AR 2 XXZ   0.000000   0.000000   0.000004  -0.000004   0.000000
  114  AR 2 YYX   0.000000   0.000000   0.000000   0.000000   0.000000
  115  AR 2 YYZ   0.000000   0.000000   0.000004  -0.000004   0.000000
  116  AR 2 ZZX   0.000000   0.000000   0.000000   0.000000   0.000000
  117  AR 2 ZZY   0.000000   0.000000   0.000000   0.000000  -0.000006
  118  AR 2 XYZ   0.000000   0.000000   0.000000   0.000000   0.000000

                      6          7          8          9         10
                   -9.5718    -9.5718    -9.5718    -9.5718    -9.5718
                     B2G        B2U        B3U        B1U        AG  
    1  AR 1  S    0.000000   0.000000   0.000000   0.000001   0.000001
    2  AR 1  S    0.000000   0.000000   0.000000   0.000016   0.000011
    3  AR 1  S    0.000000   0.000000   0.000000   0.000014   0.000000
    4  AR 1  S    0.000000   0.000000   0.000000   0.000012  -0.000008
    5  AR 1  S    0.000000   0.000000   0.000000  -0.000127   0.000031
    6  AR 1  S    0.000000   0.000000   0.000000   0.000093   0.000062
    7  AR 1  X    0.687663   0.000000   0.687688   0.000000   0.000000
    8  AR 1  Y    0.000000   0.687688   0.000000   0.000000   0.000000
    9  AR 1  Z    0.000000   0.000000   0.000000   0.687573   0.687701
   10  AR 1  X   -0.000355   0.000000  -0.000312   0.000000   0.000000
   11  AR 1  Y    0.000000  -0.000312   0.000000   0.000000   0.000000
   12  AR 1  Z    0.000000   0.000000   0.000000  -0.000518  -0.000292
   13  AR 1  X    0.040204   0.000000   0.040186   0.000000   0.000000
   14  AR 1  Y    0.000000   0.040186   0.000000   0.000000   0.000000
   15  AR 1  Z    0.000000   0.000000   0.000000   0.040268   0.040173
   16  AR 1  X    0.001710   0.000000   0.001650   0.000000   0.000000
   17  AR 1  Y    0.000000   0.001650   0.000000   0.000000   0.000000
   18  AR 1  Z    0.000000   0.000000   0.000000   0.001848   0.001680
   19  AR 1  X   -0.000572   0.000000  -0.000438   0.000000   0.000000
   20  AR 1  Y    0.000000  -0.000438   0.000000   0.000000   0.000000
   21  AR 1  Z    0.000000   0.000000   0.000000  -0.000456  -0.000520
   22  AR 1 XX    0.000000   0.000000   0.000000   0.000093  -0.000043
   23  AR 1 YY    0.000000   0.000000   0.000000   0.000093  -0.000043
   24  AR 1 ZZ    0.000000   0.000000   0.000000  -0.000187   0.000087
   25  AR 1 XY    0.000000   0.000000   0.000000   0.000000   0.000000
   26  AR 1 XZ    0.000006   0.000000   0.000012   0.000000   0.000000
   27  AR 1 YZ    0.000000   0.000012   0.000000   0.000000   0.000000
   28  AR 1 XX    0.000000   0.000000   0.000000  -0.000025   0.000012
   29  AR 1 YY    0.000000   0.000000   0.000000  -0.000025   0.000012
   30  AR 1 ZZ    0.000000   0.000000   0.000000   0.000049  -0.000023
   31  AR 1 XY    0.000000   0.000000   0.000000   0.000000   0.000000
   32  AR 1 XZ   -0.000002   0.000000  -0.000005   0.000000   0.000000
   33  AR 1 YZ    0.000000  -0.000005   0.000000   0.000000   0.000000
   34  AR 1 XX    0.000000   0.000000   0.000000  -0.000148   0.000066
   35  AR 1 YY    0.000000   0.000000   0.000000  -0.000148   0.000066
   36  AR 1 ZZ    0.000000   0.000000   0.000000   0.000295  -0.000133
   37  AR 1 XY    0.000000   0.000000   0.000000   0.000000   0.000000
   38  AR 1 XZ   -0.000018   0.000000  -0.000007   0.000000   0.000000
   39  AR 1 YZ    0.000000  -0.000007   0.000000   0.000000   0.000000
   40  AR 1 XXX   0.000002   0.000000  -0.000003   0.000000   0.000000
   41  AR 1 YYY   0.000000  -0.000003   0.000000   0.000000   0.000000
   42  AR 1 ZZZ   0.000000   0.000000   0.000000  -0.000054   0.000030
   43  AR 1 XXY   0.000000  -0.000001   0.000000   0.000000   0.000000
   44  AR 1 XXZ   0.000000   0.000000   0.000000   0.000036  -0.000020
   45  AR 1 YYX   0.000001   0.000000  -0.000001   0.000000   0.000000
   46  AR 1 YYZ   0.000000   0.000000   0.000000   0.000036  -0.000020
   47  AR 1 ZZX  -0.000004   0.000000   0.000006   0.000000   0.000000
   48  AR 1 ZZY   0.000000   0.000006   0.000000   0.000000   0.000000
   49  AR 1 XYZ   0.000000   0.000000   0.000000   0.000000   0.000000
   50  AR 1 XXX  -0.000003   0.000000   0.000005   0.000000   0.000000
   51  AR 1 YYY   0.000000   0.000005   0.000000   0.000000   0.000000
   52  AR 1 ZZZ   0.000000   0.000000   0.000000   0.000095  -0.000052
   53  AR 1 XXY   0.000000   0.000002   0.000000   0.000000   0.000000
   54  AR 1 XXZ   0.000000   0.000000   0.000000  -0.000064   0.000035
   55  AR 1 YYX  -0.000001   0.000000   0.000002   0.000000   0.000000
   56  AR 1 YYZ   0.000000   0.000000   0.000000  -0.000064   0.000035
   57  AR 1 ZZX   0.000006   0.000000  -0.000009   0.000000   0.000000
   58  AR 1 ZZY   0.000000  -0.000009   0.000000   0.000000   0.000000
   59  AR 1 XYZ   0.000000   0.000000   0.000000   0.000000   0.000000
   60  AR 2  S    0.000000   0.000000   0.000000  -0.000001   0.000001
   61  AR 2  S    0.000000   0.000000   0.000000  -0.000016   0.000011
   62  AR 2  S    0.000000   0.000000   0.000000  -0.000014   0.000000
   63  AR 2  S    0.000000   0.000000   0.000000  -0.000012  -0.000008
   64  AR 2  S    0.000000   0.000000   0.000000   0.000127   0.000031
   65  AR 2  S    0.000000   0.000000   0.000000  -0.000093   0.000062
   66  AR 2  X   -0.687663   0.000000   0.687688   0.000000   0.000000
   67  AR 2  Y    0.000000   0.687688   0.000000   0.000000   0.000000
   68  AR 2  Z    0.000000   0.000000   0.000000   0.687573  -0.687701
   69  AR 2  X    0.000355   0.000000  -0.000312   0.000000   0.000000
   70  AR 2  Y    0.000000  -0.000312   0.000000   0.000000   0.000000
   71  AR 2  Z    0.000000   0.000000   0.000000  -0.000518   0.000292
   72  AR 2  X   -0.040204   0.000000   0.040186   0.000000   0.000000
   73  AR 2  Y    0.000000   0.040186   0.000000   0.000000   0.000000
   74  AR 2  Z    0.000000   0.000000   0.000000   0.040268  -0.040173
   75  AR 2  X   -0.001710   0.000000   0.001650   0.000000   0.000000
   76  AR 2  Y    0.000000   0.001650   0.000000   0.000000   0.000000
   77  AR 2  Z    0.000000   0.000000   0.000000   0.001848  -0.001680
   78  AR 2  X    0.000572   0.000000  -0.000438   0.000000   0.000000
   79  AR 2  Y    0.000000  -0.000438   0.000000   0.000000   0.000000
   80  AR 2  Z    0.000000   0.000000   0.000000  -0.000456   0.000520
   81  AR 2 XX    0.000000   0.000000   0.000000  -0.000093  -0.000043
   82  AR 2 YY    0.000000   0.000000   0.000000  -0.000093  -0.000043
   83  AR 2 ZZ    0.000000   0.000000   0.000000   0.000187   0.000087
   84  AR 2 XY    0.000000   0.000000   0.000000   0.000000   0.000000
   85  AR 2 XZ    0.000006   0.000000  -0.000012   0.000000   0.000000
   86  AR 2 YZ    0.000000  -0.000012   0.000000   0.000000   0.000000
   87  AR 2 XX    0.000000   0.000000   0.000000   0.000025   0.000012
   88  AR 2 YY    0.000000   0.000000   0.000000   0.000025   0.000012
   89  AR 2 ZZ    0.000000   0.000000   0.000000  -0.000049  -0.000023
   90  AR 2 XY    0.000000   0.000000   0.000000   0.000000   0.000000
   91  AR 2 XZ   -0.000002   0.000000   0.000005   0.000000   0.000000
   92  AR 2 YZ    0.000000   0.000005   0.000000   0.000000   0.000000
   93  AR 2 XX    0.000000   0.000000   0.000000   0.000148   0.000066
   94  AR 2 YY    0.000000   0.000000   0.000000   0.000148   0.000066
   95  AR 2 ZZ    0.000000   0.000000   0.000000  -0.000295  -0.000133
   96  AR 2 XY    0.000000   0.000000   0.000000   0.000000   0.000000
   97  AR 2 XZ   -0.000018   0.000000   0.000007   0.000000   0.000000
   98  AR 2 YZ    0.000000   0.000007   0.000000   0.000000   0.000000
   99  AR 2 XXX  -0.000002   0.000000  -0.000003   0.000000   0.000000
  100  AR 2 YYY   0.000000  -0.000003   0.000000   0.000000   0.000000
  101  AR 2 ZZZ   0.000000   0.000000   0.000000  -0.000054  -0.000030
  102  AR 2 XXY   0.000000  -0.000001   0.000000   0.000000   0.000000
  103  AR 2 XXZ   0.000000   0.000000   0.000000   0.000036   0.000020
  104  AR 2 YYX  -0.000001   0.000000  -0.000001   0.000000   0.000000
  105  AR 2 YYZ   0.000000   0.000000   0.000000   0.000036   0.000020
  106  AR 2 ZZX   0.000004   0.000000   0.000006   0.000000   0.000000
  107  AR 2 ZZY   0.000000   0.000006   0.000000   0.000000   0.000000
  108  AR 2 XYZ   0.000000   0.000000   0.000000   0.000000   0.000000
  109  AR 2 XXX   0.000003   0.000000   0.000005   0.000000   0.000000
  110  AR 2 YYY   0.000000   0.000005   0.000000   0.000000   0.000000
  111  AR 2 ZZZ   0.000000   0.000000   0.000000   0.000095   0.000052
  112  AR 2 XXY   0.000000   0.000002   0.000000   0.000000   0.000000
  113  AR 2 XXZ   0.000000   0.000000   0.000000  -0.000064  -0.000035
  114  AR 2 YYX   0.000001   0.000000   0.000002   0.000000   0.000000
  115  AR 2 YYZ   0.000000   0.000000   0.000000  -0.000064  -0.000035
  116  AR 2 ZZX  -0.000006   0.000000  -0.000009   0.000000   0.000000
  117  AR 2 ZZY   0.000000  -0.000009   0.000000   0.000000   0.000000
  118  AR 2 XYZ   0.000000   0.000000   0.000000   0.000000   0.000000

                     11         12         13         14         15
                   -1.2784    -1.2771    -0.5984    -0.5922    -0.5922
                     AG         B1U        AG         B2U        B3U 
    1  AR 1  S    0.000266   0.000205  -0.000044   0.000000   0.000000
    2  AR 1  S    0.001525   0.001207  -0.000405   0.000000   0.000000
    3  AR 1  S    0.460228   0.460726  -0.004891   0.000000   0.000000
    4  AR 1  S    0.049406   0.049627  -0.000708   0.000000   0.000000
    5  AR 1  S    0.275599   0.277901  -0.002384   0.000000   0.000000
    6  AR 1  S    0.003496   0.000436  -0.000005   0.000000   0.000000
    7  AR 1  X    0.000000   0.000000   0.000000   0.000000   0.001315
    8  AR 1  Y    0.000000   0.000000   0.000000   0.001315   0.000000
    9  AR 1  Z   -0.000029  -0.000043   0.001462   0.000000   0.000000
   10  AR 1  X    0.000000   0.000000   0.000000   0.000000   0.414852
   11  AR 1  Y    0.000000   0.000000   0.000000   0.414852   0.000000
   12  AR 1  Z    0.000518  -0.000532   0.411547   0.000000   0.000000
   13  AR 1  X    0.000000   0.000000   0.000000   0.000000   0.198875
   14  AR 1  Y    0.000000   0.000000   0.000000   0.198875   0.000000
   15  AR 1  Z    0.000245  -0.000154   0.196841   0.000000   0.000000
   16  AR 1  X    0.000000   0.000000   0.000000   0.000000   0.223581
   17  AR 1  Y    0.000000   0.000000   0.000000   0.223581   0.000000
   18  AR 1  Z    0.000581   0.000060   0.221057   0.000000   0.000000
   19  AR 1  X    0.000000   0.000000   0.000000   0.000000   0.007693
   20  AR 1  Y    0.000000   0.000000   0.000000   0.007693   0.000000
   21  AR 1  Z   -0.000106  -0.002174   0.006624   0.000000   0.000000
   22  AR 1 XX   -0.000154  -0.000092  -0.000642   0.000000   0.000000
   23  AR 1 YY   -0.000154  -0.000092  -0.000642   0.000000   0.000000
   24  AR 1 ZZ    0.000308   0.000184   0.001283   0.000000   0.000000
   25  AR 1 XY    0.000000   0.000000   0.000000   0.000000   0.000000
   26  AR 1 XZ    0.000000   0.000000   0.000000   0.000000   0.000198
   27  AR 1 YZ    0.000000   0.000000   0.000000   0.000198   0.000000
   28  AR 1 XX    0.000010   0.000040  -0.000152   0.000000   0.000000
   29  AR 1 YY    0.000010   0.000040  -0.000152   0.000000   0.000000
   30  AR 1 ZZ   -0.000020  -0.000081   0.000305   0.000000   0.000000
   31  AR 1 XY    0.000000   0.000000   0.000000   0.000000   0.000000
   32  AR 1 XZ    0.000000   0.000000   0.000000   0.000000   0.000096
   33  AR 1 YZ    0.000000   0.000000   0.000000   0.000096   0.000000
   34  AR 1 XX    0.000054   0.000389   0.000226   0.000000   0.000000
   35  AR 1 YY    0.000054   0.000389   0.000226   0.000000   0.000000
   36  AR 1 ZZ   -0.000109  -0.000778  -0.000451   0.000000   0.000000
   37  AR 1 XY    0.000000   0.000000   0.000000   0.000000   0.000000
   38  AR 1 XZ    0.000000   0.000000   0.000000   0.000000   0.000345
   39  AR 1 YZ    0.000000   0.000000   0.000000   0.000345   0.000000
   40  AR 1 XXX   0.000000   0.000000   0.000000   0.000000   0.000000
   41  AR 1 YYY   0.000000   0.000000   0.000000   0.000000   0.000000
   42  AR 1 ZZZ   0.000015   0.000019   0.000282   0.000000   0.000000
   43  AR 1 XXY   0.000000   0.000000   0.000000   0.000000   0.000000
   44  AR 1 XXZ  -0.000010  -0.000013  -0.000189   0.000000   0.000000
   45  AR 1 YYX   0.000000   0.000000   0.000000   0.000000   0.000000
   46  AR 1 YYZ  -0.000010  -0.000013  -0.000189   0.000000   0.000000
   47  AR 1 ZZX   0.000000   0.000000   0.000000   0.000000   0.000001
   48  AR 1 ZZY   0.000000   0.000000   0.000000   0.000001   0.000000
   49  AR 1 XYZ   0.000000   0.000000   0.000000   0.000000   0.000000
   50  AR 1 XXX   0.000000   0.000000   0.000000   0.000000  -0.000068
   51  AR 1 YYY   0.000000   0.000000   0.000000  -0.000068   0.000000
   52  AR 1 ZZZ   0.000036  -0.000110  -0.000326   0.000000   0.000000
   53  AR 1 XXY   0.000000   0.000000   0.000000  -0.000030   0.000000
   54  AR 1 XXZ  -0.000024   0.000074   0.000219   0.000000   0.000000
   55  AR 1 YYX   0.000000   0.000000   0.000000   0.000000  -0.000030
   56  AR 1 YYZ  -0.000024   0.000074   0.000219   0.000000   0.000000
   57  AR 1 ZZX   0.000000   0.000000   0.000000   0.000000   0.000122
   58  AR 1 ZZY   0.000000   0.000000   0.000000   0.000122   0.000000
   59  AR 1 XYZ   0.000000   0.000000   0.000000   0.000000   0.000000
   60  AR 2  S    0.000266  -0.000205  -0.000044   0.000000   0.000000
   61  AR 2  S    0.001525  -0.001207  -0.000405   0.000000   0.000000
   62  AR 2  S    0.460228  -0.460726  -0.004891   0.000000   0.000000
   63  AR 2  S    0.049406  -0.049627  -0.000708   0.000000   0.000000
   64  AR 2  S    0.275599  -0.277901  -0.002384   0.000000   0.000000
   65  AR 2  S    0.003496  -0.000436  -0.000005   0.000000   0.000000
   66  AR 2  X    0.000000   0.000000   0.000000   0.000000   0.001315
   67  AR 2  Y    0.000000   0.000000   0.000000   0.001315   0.000000
   68  AR 2  Z    0.000029  -0.000043  -0.001462   0.000000   0.000000
   69  AR 2  X    0.000000   0.000000   0.000000   0.000000   0.414852
   70  AR 2  Y    0.000000   0.000000   0.000000   0.414852   0.000000
   71  AR 2  Z   -0.000518  -0.000532  -0.411547   0.000000   0.000000
   72  AR 2  X    0.000000   0.000000   0.000000   0.000000   0.198875
   73  AR 2  Y    0.000000   0.000000   0.000000   0.198875   0.000000
   74  AR 2  Z   -0.000245  -0.000154  -0.196841   0.000000   0.000000
   75  AR 2  X    0.000000   0.000000   0.000000   0.000000   0.223581
   76  AR 2  Y    0.000000   0.000000   0.000000   0.223581   0.000000
   77  AR 2  Z   -0.000581   0.000060  -0.221057   0.000000   0.000000
   78  AR 2  X    0.000000   0.000000   0.000000   0.000000   0.007693
   79  AR 2  Y    0.000000   0.000000   0.000000   0.007693   0.000000
   80  AR 2  Z    0.000106  -0.002174  -0.006624   0.000000   0.000000
   81  AR 2 XX   -0.000154   0.000092  -0.000642   0.000000   0.000000
   82  AR 2 YY   -0.000154   0.000092  -0.000642   0.000000   0.000000
   83  AR 2 ZZ    0.000308  -0.000184   0.001283   0.000000   0.000000
   84  AR 2 XY    0.000000   0.000000   0.000000   0.000000   0.000000
   85  AR 2 XZ    0.000000   0.000000   0.000000   0.000000  -0.000198
   86  AR 2 YZ    0.000000   0.000000   0.000000  -0.000198   0.000000
   87  AR 2 XX    0.000010  -0.000040  -0.000152   0.000000   0.000000
   88  AR 2 YY    0.000010  -0.000040  -0.000152   0.000000   0.000000
   89  AR 2 ZZ   -0.000020   0.000081   0.000305   0.000000   0.000000
   90  AR 2 XY    0.000000   0.000000   0.000000   0.000000   0.000000
   91  AR 2 XZ    0.000000   0.000000   0.000000   0.000000  -0.000096
   92  AR 2 YZ    0.000000   0.000000   0.000000  -0.000096   0.000000
   93  AR 2 XX    0.000054  -0.000389   0.000226   0.000000   0.000000
   94  AR 2 YY    0.000054  -0.000389   0.000226   0.000000   0.000000
   95  AR 2 ZZ   -0.000109   0.000778  -0.000451   0.000000   0.000000
   96  AR 2 XY    0.000000   0.000000   0.000000   0.000000   0.000000
   97  AR 2 XZ    0.000000   0.000000   0.000000   0.000000  -0.000345
   98  AR 2 YZ    0.000000   0.000000   0.000000  -0.000345   0.000000
   99  AR 2 XXX   0.000000   0.000000   0.000000   0.000000   0.000000
  100  AR 2 YYY   0.000000   0.000000   0.000000   0.000000   0.000000
  101  AR 2 ZZZ  -0.000015   0.000019  -0.000282   0.000000   0.000000
  102  AR 2 XXY   0.000000   0.000000   0.000000   0.000000   0.000000
  103  AR 2 XXZ   0.000010  -0.000013   0.000189   0.000000   0.000000
  104  AR 2 YYX   0.000000   0.000000   0.000000   0.000000   0.000000
  105  AR 2 YYZ   0.000010  -0.000013   0.000189   0.000000   0.000000
  106  AR 2 ZZX   0.000000   0.000000   0.000000   0.000000   0.000001
  107  AR 2 ZZY   0.000000   0.000000   0.000000   0.000001   0.000000
  108  AR 2 XYZ   0.000000   0.000000   0.000000   0.000000   0.000000
  109  AR 2 XXX   0.000000   0.000000   0.000000   0.000000  -0.000068
  110  AR 2 YYY   0.000000   0.000000   0.000000  -0.000068   0.000000
  111  AR 2 ZZZ  -0.000036  -0.000110   0.000326   0.000000   0.000000
  112  AR 2 XXY   0.000000   0.000000   0.000000  -0.000030   0.000000
  113  AR 2 XXZ   0.000024   0.000074  -0.000219   0.000000   0.000000
  114  AR 2 YYX   0.000000   0.000000   0.000000   0.000000  -0.000030
  115  AR 2 YYZ   0.000024   0.000074  -0.000219   0.000000   0.000000
  116  AR 2 ZZX   0.000000   0.000000   0.000000   0.000000   0.000122
  117  AR 2 ZZY   0.000000   0.000000   0.000000   0.000122   0.000000
  118  AR 2 XYZ   0.000000   0.000000   0.000000   0.000000   0.000000

                     16         17         18         19         20
                   -0.5902    -0.5902    -0.5843     0.1130     0.1188
                     B2G        B3G        B1U        B1U        B2U 
    1  AR 1  S    0.000000   0.000000   0.000055  -0.003236   0.000000
    2  AR 1  S    0.000000   0.000000   0.000480  -0.014496   0.000000
    3  AR 1  S    0.000000   0.000000   0.005006   0.052965   0.000000
    4  AR 1  S    0.000000   0.000000   0.000735   0.016749   0.000000
    5  AR 1  S    0.000000   0.000000   0.001924   0.194964   0.000000
    6  AR 1  S    0.000000   0.000000   0.000877  -0.063732   0.000000
    7  AR 1  X    0.001312   0.000000   0.000000   0.000000   0.000000
    8  AR 1  Y    0.000000   0.001312   0.000000   0.000000   0.039127
    9  AR 1  Z    0.000000   0.000000   0.000835   0.035830   0.000000
   10  AR 1  X    0.416375   0.000000   0.000000   0.000000   0.000000
   11  AR 1  Y    0.000000   0.416375   0.000000   0.000000  -0.021638
   12  AR 1  Z    0.000000   0.000000   0.419382   0.003671   0.000000
   13  AR 1  X    0.199692   0.000000   0.000000   0.000000   0.000000
   14  AR 1  Y    0.000000   0.199692   0.000000   0.000000  -0.071321
   15  AR 1  Z    0.000000   0.000000   0.202104  -0.052248   0.000000
   16  AR 1  X    0.224654   0.000000   0.000000   0.000000   0.000000
   17  AR 1  Y    0.000000   0.224654   0.000000   0.000000  -0.351299
   18  AR 1  Z    0.000000   0.000000   0.228269  -0.315722   0.000000
   19  AR 1  X    0.007041   0.000000   0.000000   0.000000   0.000000
   20  AR 1  Y    0.000000   0.007041   0.000000   0.000000   0.783530
   21  AR 1  Z    0.000000   0.000000   0.008019   1.124795   0.000000
   22  AR 1 XX    0.000000   0.000000   0.000901   0.016158   0.000000
   23  AR 1 YY    0.000000   0.000000   0.000901   0.016158   0.000000
   24  AR 1 ZZ    0.000000   0.000000  -0.001803  -0.032316   0.000000
   25  AR 1 XY    0.000000   0.000000   0.000000   0.000000   0.000000
   26  AR 1 XZ   -0.000122   0.000000   0.000000   0.000000   0.000000
   27  AR 1 YZ    0.000000  -0.000122   0.000000   0.000000   0.008202
   28  AR 1 XX    0.000000   0.000000   0.000115  -0.001768   0.000000
   29  AR 1 YY    0.000000   0.000000   0.000115  -0.001768   0.000000
   30  AR 1 ZZ    0.000000   0.000000  -0.000230   0.003537   0.000000
   31  AR 1 XY    0.000000   0.000000   0.000000   0.000000   0.000000
   32  AR 1 XZ   -0.000091   0.000000   0.000000   0.000000   0.000000
   33  AR 1 YZ    0.000000  -0.000091   0.000000   0.000000   0.002444
   34  AR 1 XX    0.000000   0.000000  -0.000704  -0.038341   0.000000
   35  AR 1 YY    0.000000   0.000000  -0.000704  -0.038341   0.000000
   36  AR 1 ZZ    0.000000   0.000000   0.001409   0.076683   0.000000
   37  AR 1 XY    0.000000   0.000000   0.000000   0.000000   0.000000
   38  AR 1 XZ   -0.000339   0.000000   0.000000   0.000000   0.000000
   39  AR 1 YZ    0.000000  -0.000339   0.000000   0.000000  -0.003438
   40  AR 1 XXX   0.000006   0.000000   0.000000   0.000000   0.000000
   41  AR 1 YYY   0.000000   0.000006   0.000000   0.000000  -0.000619
   42  AR 1 ZZZ   0.000000   0.000000  -0.000350  -0.002013   0.000000
   43  AR 1 XXY   0.000000   0.000002   0.000000   0.000000  -0.000277
   44  AR 1 XXZ   0.000000   0.000000   0.000235   0.001350   0.000000
   45  AR 1 YYX   0.000002   0.000000   0.000000   0.000000   0.000000
   46  AR 1 YYZ   0.000000   0.000000   0.000235   0.001350   0.000000
   47  AR 1 ZZX  -0.000010   0.000000   0.000000   0.000000   0.000000
   48  AR 1 ZZY   0.000000  -0.000010   0.000000   0.000000   0.001107
   49  AR 1 XYZ   0.000000   0.000000   0.000000   0.000000   0.000000
   50  AR 1 XXX   0.000055   0.000000   0.000000   0.000000   0.000000
   51  AR 1 YYY   0.000000   0.000055   0.000000   0.000000   0.001117
   52  AR 1 ZZZ   0.000000   0.000000   0.000454   0.004930   0.000000
   53  AR 1 XXY   0.000000   0.000025   0.000000   0.000000   0.000500
   54  AR 1 XXZ   0.000000   0.000000  -0.000304  -0.003307   0.000000
   55  AR 1 YYX   0.000025   0.000000   0.000000   0.000000   0.000000
   56  AR 1 YYZ   0.000000   0.000000  -0.000304  -0.003307   0.000000
   57  AR 1 ZZX  -0.000099   0.000000   0.000000   0.000000   0.000000
   58  AR 1 ZZY   0.000000  -0.000099   0.000000   0.000000  -0.001999
   59  AR 1 XYZ   0.000000   0.000000   0.000000   0.000000   0.000000
   60  AR 2  S    0.000000   0.000000  -0.000055   0.003236   0.000000
   61  AR 2  S    0.000000   0.000000  -0.000480   0.014496   0.000000
   62  AR 2  S    0.000000   0.000000  -0.005006  -0.052965   0.000000
   63  AR 2  S    0.000000   0.000000  -0.000735  -0.016749   0.000000
   64  AR 2  S    0.000000   0.000000  -0.001924  -0.194964   0.000000
   65  AR 2  S    0.000000   0.000000  -0.000877   0.063732   0.000000
   66  AR 2  X   -0.001312   0.000000   0.000000   0.000000   0.000000
   67  AR 2  Y    0.000000  -0.001312   0.000000   0.000000   0.039127
   68  AR 2  Z    0.000000   0.000000   0.000835   0.035830   0.000000
   69  AR 2  X   -0.416375   0.000000   0.000000   0.000000   0.000000
   70  AR 2  Y    0.000000  -0.416375   0.000000   0.000000  -0.021638
   71  AR 2  Z    0.000000   0.000000   0.419382   0.003671   0.000000
   72  AR 2  X   -0.199692   0.000000   0.000000   0.000000   0.000000
   73  AR 2  Y    0.000000  -0.199692   0.000000   0.000000  -0.071321
   74  AR 2  Z    0.000000   0.000000   0.202104  -0.052248   0.000000
   75  AR 2  X   -0.224654   0.000000   0.000000   0.000000   0.000000
   76  AR 2  Y    0.000000  -0.224654   0.000000   0.000000  -0.351299
   77  AR 2  Z    0.000000   0.000000   0.228269  -0.315722   0.000000
   78  AR 2  X   -0.007041   0.000000   0.000000   0.000000   0.000000
   79  AR 2  Y    0.000000  -0.007041   0.000000   0.000000   0.783530
   80  AR 2  Z    0.000000   0.000000   0.008019   1.124795   0.000000
   81  AR 2 XX    0.000000   0.000000  -0.000901  -0.016158   0.000000
   82  AR 2 YY    0.000000   0.000000  -0.000901  -0.016158   0.000000
   83  AR 2 ZZ    0.000000   0.000000   0.001803   0.032316   0.000000
   84  AR 2 XY    0.000000   0.000000   0.000000   0.000000   0.000000
   85  AR 2 XZ   -0.000122   0.000000   0.000000   0.000000   0.000000
   86  AR 2 YZ    0.000000  -0.000122   0.000000   0.000000  -0.008202
   87  AR 2 XX    0.000000   0.000000  -0.000115   0.001768   0.000000
   88  AR 2 YY    0.000000   0.000000  -0.000115   0.001768   0.000000
   89  AR 2 ZZ    0.000000   0.000000   0.000230  -0.003537   0.000000
   90  AR 2 XY    0.000000   0.000000   0.000000   0.000000   0.000000
   91  AR 2 XZ   -0.000091   0.000000   0.000000   0.000000   0.000000
   92  AR 2 YZ    0.000000  -0.000091   0.000000   0.000000  -0.002444
   93  AR 2 XX    0.000000   0.000000   0.000704   0.038341   0.000000
   94  AR 2 YY    0.000000   0.000000   0.000704   0.038341   0.000000
   95  AR 2 ZZ    0.000000   0.000000  -0.001409  -0.076683   0.000000
   96  AR 2 XY    0.000000   0.000000   0.000000   0.000000   0.000000
   97  AR 2 XZ   -0.000339   0.000000   0.000000   0.000000   0.000000
   98  AR 2 YZ    0.000000  -0.000339   0.000000   0.000000   0.003438
   99  AR 2 XXX  -0.000006   0.000000   0.000000   0.000000   0.000000
  100  AR 2 YYY   0.000000  -0.000006   0.000000   0.000000  -0.000619
  101  AR 2 ZZZ   0.000000   0.000000  -0.000350  -0.002013   0.000000
  102  AR 2 XXY   0.000000  -0.000002   0.000000   0.000000  -0.000277
  103  AR 2 XXZ   0.000000   0.000000   0.000235   0.001350   0.000000
  104  AR 2 YYX  -0.000002   0.000000   0.000000   0.000000   0.000000
  105  AR 2 YYZ   0.000000   0.000000   0.000235   0.001350   0.000000
  106  AR 2 ZZX   0.000010   0.000000   0.000000   0.000000   0.000000
  107  AR 2 ZZY   0.000000   0.000010   0.000000   0.000000   0.001107
  108  AR 2 XYZ   0.000000   0.000000   0.000000   0.000000   0.000000
  109  AR 2 XXX  -0.000055   0.000000   0.000000   0.000000   0.000000
  110  AR 2 YYY   0.000000  -0.000055   0.000000   0.000000   0.001117
  111  AR 2 ZZZ   0.000000   0.000000   0.000454   0.004930   0.000000
  112  AR 2 XXY   0.000000  -0.000025   0.000000   0.000000   0.000500
  113  AR 2 XXZ   0.000000   0.000000  -0.000304  -0.003307   0.000000
  114  AR 2 YYX  -0.000025   0.000000   0.000000   0.000000   0.000000
  115  AR 2 YYZ   0.000000   0.000000  -0.000304  -0.003307   0.000000
  116  AR 2 ZZX   0.000099   0.000000   0.000000   0.000000   0.000000
  117  AR 2 ZZY   0.000000   0.000099   0.000000   0.000000  -0.001999
  118  AR 2 XYZ   0.000000   0.000000   0.000000   0.000000   0.000000

                     21         22         23         24         25
                    0.1188     0.1312     0.1524     0.1524     0.1548
                     B3U        AG         B3G        B2G        AG  
    1  AR 1  S    0.000000   0.019221   0.000000   0.000000  -0.000818
    2  AR 1  S    0.000000   0.103985   0.000000   0.000000  -0.005904
    3  AR 1  S    0.000000  -0.009673   0.000000   0.000000  -0.023334
    4  AR 1  S    0.000000  -0.040639   0.000000   0.000000  -0.003180
    5  AR 1  S    0.000000  -0.805286   0.000000   0.000000   0.021143
    6  AR 1  S    0.000000   1.125205   0.000000   0.000000  -0.199016
    7  AR 1  X    0.039127   0.000000   0.000000   0.044505   0.000000
    8  AR 1  Y    0.000000   0.000000   0.044505   0.000000   0.000000
    9  AR 1  Z    0.000000  -0.005338   0.000000   0.000000   0.050802
   10  AR 1  X   -0.021638   0.000000   0.000000  -0.005430   0.000000
   11  AR 1  Y    0.000000   0.000000  -0.005430   0.000000   0.000000
   12  AR 1  Z    0.000000  -0.024675   0.000000   0.000000  -0.012593
   13  AR 1  X   -0.071321   0.000000   0.000000  -0.070817   0.000000
   14  AR 1  Y    0.000000   0.000000  -0.070817   0.000000   0.000000
   15  AR 1  Z    0.000000  -0.005535   0.000000   0.000000  -0.084199
   16  AR 1  X   -0.351299   0.000000   0.000000  -0.400038   0.000000
   17  AR 1  Y    0.000000   0.000000  -0.400038   0.000000   0.000000
   18  AR 1  Z    0.000000   0.024384   0.000000   0.000000  -0.459060
   19  AR 1  X    0.783530   0.000000   0.000000   1.071895   0.000000
   20  AR 1  Y    0.000000   0.000000   1.071895   0.000000   0.000000
   21  AR 1  Z    0.000000  -0.100330   0.000000   0.000000   0.868612
   22  AR 1 XX    0.000000  -0.008001   0.000000   0.000000  -0.007261
   23  AR 1 YY    0.000000  -0.008001   0.000000   0.000000  -0.007261
   24  AR 1 ZZ    0.000000   0.016001   0.000000   0.000000   0.014522
   25  AR 1 XY    0.000000   0.000000   0.000000   0.000000   0.000000
   26  AR 1 XZ    0.008202   0.000000   0.000000  -0.007147   0.000000
   27  AR 1 YZ    0.000000   0.000000  -0.007147   0.000000   0.000000
   28  AR 1 XX    0.000000  -0.000108   0.000000   0.000000   0.002881
   29  AR 1 YY    0.000000  -0.000108   0.000000   0.000000   0.002881
   30  AR 1 ZZ    0.000000   0.000216   0.000000   0.000000  -0.005762
   31  AR 1 XY    0.000000   0.000000   0.000000   0.000000   0.000000
   32  AR 1 XZ    0.002444   0.000000   0.000000  -0.005934   0.000000
   33  AR 1 YZ    0.000000   0.000000  -0.005934   0.000000   0.000000
   34  AR 1 XX    0.000000   0.010871   0.000000   0.000000   0.034429
   35  AR 1 YY    0.000000   0.010871   0.000000   0.000000   0.034429
   36  AR 1 ZZ    0.000000  -0.021742   0.000000   0.000000  -0.068859
   37  AR 1 XY    0.000000   0.000000   0.000000   0.000000   0.000000
   38  AR 1 XZ   -0.003438   0.000000   0.000000  -0.013482   0.000000
   39  AR 1 YZ    0.000000   0.000000  -0.013482   0.000000   0.000000
   40  AR 1 XXX  -0.000619   0.000000   0.000000   0.000695   0.000000
   41  AR 1 YYY   0.000000   0.000000   0.000695   0.000000   0.000000
   42  AR 1 ZZZ   0.000000   0.001682   0.000000   0.000000   0.001391
   43  AR 1 XXY   0.000000   0.000000   0.000311   0.000000   0.000000
   44  AR 1 XXZ   0.000000  -0.001128   0.000000   0.000000  -0.000933
   45  AR 1 YYX  -0.000277   0.000000   0.000000   0.000311   0.000000
   46  AR 1 YYZ   0.000000  -0.001128   0.000000   0.000000  -0.000933
   47  AR 1 ZZX   0.001107   0.000000   0.000000  -0.001244   0.000000
   48  AR 1 ZZY   0.000000   0.000000  -0.001244   0.000000   0.000000
   49  AR 1 XYZ   0.000000   0.000000   0.000000   0.000000   0.000000
   50  AR 1 XXX   0.001117   0.000000   0.000000  -0.001086   0.000000
   51  AR 1 YYY   0.000000   0.000000  -0.001086   0.000000   0.000000
   52  AR 1 ZZZ   0.000000  -0.003394   0.000000   0.000000  -0.005208
   53  AR 1 XXY   0.000000   0.000000  -0.000485   0.000000   0.000000
   54  AR 1 XXZ   0.000000   0.002277   0.000000   0.000000   0.003494
   55  AR 1 YYX   0.000500   0.000000   0.000000  -0.000485   0.000000
   56  AR 1 YYZ   0.000000   0.002277   0.000000   0.000000   0.003494
   57  AR 1 ZZX  -0.001999   0.000000   0.000000   0.001942   0.000000
   58  AR 1 ZZY   0.000000   0.000000   0.001942   0.000000   0.000000
   59  AR 1 XYZ   0.000000   0.000000   0.000000   0.000000   0.000000
   60  AR 2  S    0.000000   0.019221   0.000000   0.000000  -0.000818
   61  AR 2  S    0.000000   0.103985   0.000000   0.000000  -0.005904
   62  AR 2  S    0.000000  -0.009673   0.000000   0.000000  -0.023334
   63  AR 2  S    0.000000  -0.040639   0.000000   0.000000  -0.003180
   64  AR 2  S    0.000000  -0.805286   0.000000   0.000000   0.021143
   65  AR 2  S    0.000000   1.125205   0.000000   0.000000  -0.199016
   66  AR 2  X    0.039127   0.000000   0.000000  -0.044505   0.000000
   67  AR 2  Y    0.000000   0.000000  -0.044505   0.000000   0.000000
   68  AR 2  Z    0.000000   0.005338   0.000000   0.000000  -0.050802
   69  AR 2  X   -0.021638   0.000000   0.000000   0.005430   0.000000
   70  AR 2  Y    0.000000   0.000000   0.005430   0.000000   0.000000
   71  AR 2  Z    0.000000   0.024675   0.000000   0.000000   0.012593
   72  AR 2  X   -0.071321   0.000000   0.000000   0.070817   0.000000
   73  AR 2  Y    0.000000   0.000000   0.070817   0.000000   0.000000
   74  AR 2  Z    0.000000   0.005535   0.000000   0.000000   0.084199
   75  AR 2  X   -0.351299   0.000000   0.000000   0.400038   0.000000
   76  AR 2  Y    0.000000   0.000000   0.400038   0.000000   0.000000
   77  AR 2  Z    0.000000  -0.024384   0.000000   0.000000   0.459060
   78  AR 2  X    0.783530   0.000000   0.000000  -1.071895   0.000000
   79  AR 2  Y    0.000000   0.000000  -1.071895   0.000000   0.000000
   80  AR 2  Z    0.000000   0.100330   0.000000   0.000000  -0.868612
   81  AR 2 XX    0.000000  -0.008001   0.000000   0.000000  -0.007261
   82  AR 2 YY    0.000000  -0.008001   0.000000   0.000000  -0.007261
   83  AR 2 ZZ    0.000000   0.016001   0.000000   0.000000   0.014522
   84  AR 2 XY    0.000000   0.000000   0.000000   0.000000   0.000000
   85  AR 2 XZ   -0.008202   0.000000   0.000000  -0.007147   0.000000
   86  AR 2 YZ    0.000000   0.000000  -0.007147   0.000000   0.000000
   87  AR 2 XX    0.000000  -0.000108   0.000000   0.000000   0.002881
   88  AR 2 YY    0.000000  -0.000108   0.000000   0.000000   0.002881
   89  AR 2 ZZ    0.000000   0.000216   0.000000   0.000000  -0.005762
   90  AR 2 XY    0.000000   0.000000   0.000000   0.000000   0.000000
   91  AR 2 XZ   -0.002444   0.000000   0.000000  -0.005934   0.000000
   92  AR 2 YZ    0.000000   0.000000  -0.005934   0.000000   0.000000
   93  AR 2 XX    0.000000   0.010871   0.000000   0.000000   0.034429
   94  AR 2 YY    0.000000   0.010871   0.000000   0.000000   0.034429
   95  AR 2 ZZ    0.000000  -0.021742   0.000000   0.000000  -0.068859
   96  AR 2 XY    0.000000   0.000000   0.000000   0.000000   0.000000
   97  AR 2 XZ    0.003438   0.000000   0.000000  -0.013482   0.000000
   98  AR 2 YZ    0.000000   0.000000  -0.013482   0.000000   0.000000
   99  AR 2 XXX  -0.000619   0.000000   0.000000  -0.000695   0.000000
  100  AR 2 YYY   0.000000   0.000000  -0.000695   0.000000   0.000000
  101  AR 2 ZZZ   0.000000  -0.001682   0.000000   0.000000  -0.001391
  102  AR 2 XXY   0.000000   0.000000  -0.000311   0.000000   0.000000
  103  AR 2 XXZ   0.000000   0.001128   0.000000   0.000000   0.000933
  104  AR 2 YYX  -0.000277   0.000000   0.000000  -0.000311   0.000000
  105  AR 2 YYZ   0.000000   0.001128   0.000000   0.000000   0.000933
  106  AR 2 ZZX   0.001107   0.000000   0.000000   0.001244   0.000000
  107  AR 2 ZZY   0.000000   0.000000   0.001244   0.000000   0.000000
  108  AR 2 XYZ   0.000000   0.000000   0.000000   0.000000   0.000000
  109  AR 2 XXX   0.001117   0.000000   0.000000   0.001086   0.000000
  110  AR 2 YYY   0.000000   0.000000   0.001086   0.000000   0.000000
  111  AR 2 ZZZ   0.000000   0.003394   0.000000   0.000000   0.005208
  112  AR 2 XXY   0.000000   0.000000   0.000485   0.000000   0.000000
  113  AR 2 XXZ   0.000000  -0.002277   0.000000   0.000000  -0.003494
  114  AR 2 YYX   0.000500   0.000000   0.000000   0.000485   0.000000
  115  AR 2 YYZ   0.000000  -0.002277   0.000000   0.000000  -0.003494
  116  AR 2 ZZX  -0.001999   0.000000   0.000000  -0.001942   0.000000
  117  AR 2 ZZY   0.000000   0.000000  -0.001942   0.000000   0.000000
  118  AR 2 XYZ   0.000000   0.000000   0.000000   0.000000   0.000000

                     26         27         28         29         30
                    0.2502     0.3741     0.3741     0.3747     0.4015
                     B1U        B3U        B2U        AG         B1G 
    1  AR 1  S    0.023094   0.000000   0.000000  -0.008961   0.000000
    2  AR 1  S    0.127424   0.000000   0.000000  -0.053529   0.000000
    3  AR 1  S    0.033756   0.000000   0.000000  -0.080515   0.000000
    4  AR 1  S   -0.037065   0.000000   0.000000   0.004123   0.000000
    5  AR 1  S   -1.053098   0.000000   0.000000   0.162515   0.000000
    6  AR 1  S    1.830188   0.000000   0.000000  -0.133824   0.000000
    7  AR 1  X    0.000000  -0.013865   0.000000   0.000000   0.000000
    8  AR 1  Y    0.000000   0.000000  -0.013865   0.000000   0.000000
    9  AR 1  Z    0.021510   0.000000   0.000000  -0.047361   0.000000
   10  AR 1  X    0.000000  -0.030168   0.000000   0.000000   0.000000
   11  AR 1  Y    0.000000   0.000000  -0.030168   0.000000   0.000000
   12  AR 1  Z    0.018172   0.000000   0.000000  -0.161767   0.000000
   13  AR 1  X    0.000000   0.004404   0.000000   0.000000   0.000000
   14  AR 1  Y    0.000000   0.000000   0.004404   0.000000   0.000000
   15  AR 1  Z   -0.022594   0.000000   0.000000  -0.019980   0.000000
   16  AR 1  X    0.000000   0.069995   0.000000   0.000000   0.000000
   17  AR 1  Y    0.000000   0.000000   0.069995   0.000000   0.000000
   18  AR 1  Z   -0.217128   0.000000   0.000000   0.161180   0.000000
   19  AR 1  X    0.000000  -0.099787   0.000000   0.000000   0.000000
   20  AR 1  Y    0.000000   0.000000  -0.099787   0.000000   0.000000
   21  AR 1  Z    1.085287   0.000000   0.000000  -0.021431   0.000000
   22  AR 1 XX    0.010575   0.000000   0.000000   0.007728   0.000000
   23  AR 1 YY    0.010575   0.000000   0.000000   0.007728   0.000000
   24  AR 1 ZZ   -0.021151   0.000000   0.000000  -0.015457   0.000000
   25  AR 1 XY    0.000000   0.000000   0.000000   0.000000  -0.050064
   26  AR 1 XZ    0.000000  -0.062010   0.000000   0.000000   0.000000
   27  AR 1 YZ    0.000000   0.000000  -0.062010   0.000000   0.000000
   28  AR 1 XX    0.011957   0.000000   0.000000  -0.051678   0.000000
   29  AR 1 YY    0.011957   0.000000   0.000000  -0.051678   0.000000
   30  AR 1 ZZ   -0.023913   0.000000   0.000000   0.103356   0.000000
   31  AR 1 XY    0.000000   0.000000   0.000000   0.000000   0.116236
   32  AR 1 XZ    0.000000   0.110440   0.000000   0.000000   0.000000
   33  AR 1 YZ    0.000000   0.000000   0.110440   0.000000   0.000000
   34  AR 1 XX    0.034654   0.000000   0.000000  -0.306154   0.000000
   35  AR 1 YY    0.034654   0.000000   0.000000  -0.306154   0.000000
   36  AR 1 ZZ   -0.069308   0.000000   0.000000   0.612309   0.000000
   37  AR 1 XY    0.000000   0.000000   0.000000   0.000000   0.706747
   38  AR 1 XZ    0.000000   0.692299   0.000000   0.000000   0.000000
   39  AR 1 YZ    0.000000   0.000000   0.692299   0.000000   0.000000
   40  AR 1 XXX   0.000000   0.002347   0.000000   0.000000   0.000000
   41  AR 1 YYY   0.000000   0.000000   0.002347   0.000000   0.000000
   42  AR 1 ZZZ  -0.003502   0.000000   0.000000  -0.001869   0.000000
   43  AR 1 XXY   0.000000   0.000000   0.001050   0.000000   0.000000
   44  AR 1 XXZ   0.002349   0.000000   0.000000   0.001253   0.000000
   45  AR 1 YYX   0.000000   0.001050   0.000000   0.000000   0.000000
   46  AR 1 YYZ   0.002349   0.000000   0.000000   0.001253   0.000000
   47  AR 1 ZZX   0.000000  -0.004199   0.000000   0.000000   0.000000
   48  AR 1 ZZY   0.000000   0.000000  -0.004199   0.000000   0.000000
   49  AR 1 XYZ   0.000000   0.000000   0.000000   0.000000  -0.001099
   50  AR 1 XXX   0.000000  -0.007703   0.000000   0.000000   0.000000
   51  AR 1 YYY   0.000000   0.000000  -0.007703   0.000000   0.000000
   52  AR 1 ZZZ   0.007306   0.000000   0.000000   0.010484   0.000000
   53  AR 1 XXY   0.000000   0.000000  -0.003445   0.000000   0.000000
   54  AR 1 XXZ  -0.004901   0.000000   0.000000  -0.007033   0.000000
   55  AR 1 YYX   0.000000  -0.003445   0.000000   0.000000   0.000000
   56  AR 1 YYZ  -0.004901   0.000000   0.000000  -0.007033   0.000000
   57  AR 1 ZZX   0.000000   0.013780   0.000000   0.000000   0.000000
   58  AR 1 ZZY   0.000000   0.000000   0.013780   0.000000   0.000000
   59  AR 1 XYZ   0.000000   0.000000   0.000000   0.000000   0.003279
   60  AR 2  S   -0.023094   0.000000   0.000000  -0.008961   0.000000
   61  AR 2  S   -0.127424   0.000000   0.000000  -0.053529   0.000000
   62  AR 2  S   -0.033756   0.000000   0.000000  -0.080515   0.000000
   63  AR 2  S    0.037065   0.000000   0.000000   0.004123   0.000000
   64  AR 2  S    1.053098   0.000000   0.000000   0.162515   0.000000
   65  AR 2  S   -1.830188   0.000000   0.000000  -0.133824   0.000000
   66  AR 2  X    0.000000  -0.013865   0.000000   0.000000   0.000000
   67  AR 2  Y    0.000000   0.000000  -0.013865   0.000000   0.000000
   68  AR 2  Z    0.021510   0.000000   0.000000   0.047361   0.000000
   69  AR 2  X    0.000000  -0.030168   0.000000   0.000000   0.000000
   70  AR 2  Y    0.000000   0.000000  -0.030168   0.000000   0.000000
   71  AR 2  Z    0.018172   0.000000   0.000000   0.161767   0.000000
   72  AR 2  X    0.000000   0.004404   0.000000   0.000000   0.000000
   73  AR 2  Y    0.000000   0.000000   0.004404   0.000000   0.000000
   74  AR 2  Z   -0.022594   0.000000   0.000000   0.019980   0.000000
   75  AR 2  X    0.000000   0.069995   0.000000   0.000000   0.000000
   76  AR 2  Y    0.000000   0.000000   0.069995   0.000000   0.000000
   77  AR 2  Z   -0.217128   0.000000   0.000000  -0.161180   0.000000
   78  AR 2  X    0.000000  -0.099787   0.000000   0.000000   0.000000
   79  AR 2  Y    0.000000   0.000000  -0.099787   0.000000   0.000000
   80  AR 2  Z    1.085287   0.000000   0.000000   0.021431   0.000000
   81  AR 2 XX   -0.010575   0.000000   0.000000   0.007728   0.000000
   82  AR 2 YY   -0.010575   0.000000   0.000000   0.007728   0.000000
   83  AR 2 ZZ    0.021151   0.000000   0.000000  -0.015457   0.000000
   84  AR 2 XY    0.000000   0.000000   0.000000   0.000000  -0.050064
[...]
   72  AR 2  X    0.071263   0.000000   0.000000   0.070857   0.000000
   73  AR 2  Y    0.000000   0.000000   0.070857   0.000000   0.000000
   74  AR 2  Z    0.000000   0.006187   0.000000   0.000000  -0.084221
   75  AR 2  X    0.351070   0.000000   0.000000   0.400021   0.000000
   76  AR 2  Y    0.000000   0.000000   0.400021   0.000000   0.000000
   77  AR 2  Z    0.000000  -0.021170   0.000000   0.000000  -0.458033
   78  AR 2  X   -0.784020   0.000000   0.000000  -1.070166   0.000000
   79  AR 2  Y    0.000000   0.000000  -1.070166   0.000000   0.000000
   80  AR 2  Z    0.000000   0.092637   0.000000   0.000000   0.867841
   81  AR 2 XX    0.000000  -0.007959   0.000000   0.000000   0.007421
   82  AR 2 YY    0.000000  -0.007959   0.000000   0.000000   0.007421
   83  AR 2 ZZ    0.000000   0.015918   0.000000   0.000000  -0.014842
   84  AR 2 XY    0.000000   0.000000   0.000000   0.000000   0.000000
   85  AR 2 XZ    0.008076   0.000000   0.000000  -0.006965   0.000000
   86  AR 2 YZ    0.000000   0.000000  -0.006965   0.000000   0.000000
   87  AR 2 XX    0.000000  -0.000122   0.000000   0.000000  -0.002864
   88  AR 2 YY    0.000000  -0.000122   0.000000   0.000000  -0.002864
   89  AR 2 ZZ    0.000000   0.000245   0.000000   0.000000   0.005728
   90  AR 2 XY    0.000000   0.000000   0.000000   0.000000   0.000000
   91  AR 2 XZ    0.002458   0.000000   0.000000  -0.005919   0.000000
   92  AR 2 YZ    0.000000   0.000000  -0.005919   0.000000   0.000000
   93  AR 2 XX    0.000000   0.010698   0.000000   0.000000  -0.034441
   94  AR 2 YY    0.000000   0.010698   0.000000   0.000000  -0.034441
   95  AR 2 ZZ    0.000000  -0.021396   0.000000   0.000000   0.068882
   96  AR 2 XY    0.000000   0.000000   0.000000   0.000000   0.000000
   97  AR 2 XZ   -0.003084   0.000000   0.000000  -0.013798   0.000000
   98  AR 2 YZ    0.000000   0.000000  -0.013798   0.000000   0.000000
   99  AR 2 XXX   0.000609   0.000000   0.000000  -0.000683   0.000000
  100  AR 2 YYY   0.000000   0.000000  -0.000683   0.000000   0.000000
  101  AR 2 ZZZ   0.000000  -0.001655   0.000000   0.000000   0.001436
  102  AR 2 XXY   0.000000   0.000000  -0.000305   0.000000   0.000000
  103  AR 2 XXZ   0.000000   0.001110   0.000000   0.000000  -0.000963
  104  AR 2 YYX   0.000273   0.000000   0.000000  -0.000305   0.000000
  105  AR 2 YYZ   0.000000   0.001110   0.000000   0.000000  -0.000963
  106  AR 2 ZZX  -0.001090   0.000000   0.000000   0.001221   0.000000
  107  AR 2 ZZY   0.000000   0.000000   0.001221   0.000000   0.000000
  108  AR 2 XYZ   0.000000   0.000000   0.000000   0.000000   0.000000
  109  AR 2 XXX  -0.001090   0.000000   0.000000   0.001054   0.000000
  110  AR 2 YYY   0.000000   0.000000   0.001054   0.000000   0.000000
  111  AR 2 ZZZ   0.000000   0.003323   0.000000   0.000000  -0.005270
  112  AR 2 XXY   0.000000   0.000000   0.000471   0.000000   0.000000
  113  AR 2 XXZ   0.000000  -0.002229   0.000000   0.000000   0.003535
  114  AR 2 YYX  -0.000488   0.000000   0.000000   0.000471   0.000000
  115  AR 2 YYZ   0.000000  -0.002229   0.000000   0.000000   0.003535
  116  AR 2 ZZX   0.001950   0.000000   0.000000  -0.001885   0.000000
  117  AR 2 ZZY   0.000000   0.000000  -0.001885   0.000000   0.000000
  118  AR 2 XYZ   0.000000   0.000000   0.000000   0.000000   0.000000

                     26         27         28
                    0.2500     0.3742     0.3742
                     B1U        B3U        B2U 
    1  AR 1  S    0.023029   0.008871   0.000000
    2  AR 1  S    0.127049   0.052934   0.000000
    3  AR 1  S    0.033368   0.078990   0.000000
    4  AR 1  S   -0.037041  -0.004266   0.000000
    5  AR 1  S   -1.049577  -0.161903   0.000000
    6  AR 1  S    1.819387   0.133968   0.000000
    7  AR 1  X    0.000000   0.000000   0.013587
    8  AR 1  Y    0.000000   0.000000   0.000000
    9  AR 1  Z    0.021794   0.047780   0.000000
   10  AR 1  X    0.000000   0.000000   0.029248
   11  AR 1  Y    0.000000   0.000000   0.000000
   12  AR 1  Z    0.018250   0.161789   0.000000
   13  AR 1  X    0.000000   0.000000  -0.004504
   14  AR 1  Y    0.000000   0.000000   0.000000
   15  AR 1  Z   -0.022986   0.019293   0.000000
   16  AR 1  X    0.000000   0.000000  -0.068957
   17  AR 1  Y    0.000000   0.000000   0.000000
   18  AR 1  Z   -0.219325  -0.163336   0.000000
   19  AR 1  X    0.000000   0.000000   0.099348
   20  AR 1  Y    0.000000   0.000000   0.000000
   21  AR 1  Z    1.082406   0.023980   0.000000
   22  AR 1 XX    0.010374  -0.008493   0.000000
   23  AR 1 YY    0.010374  -0.008493   0.000000
   24  AR 1 ZZ   -0.020747   0.016985   0.000000
   25  AR 1 XY    0.000000   0.000000   0.000000
   26  AR 1 XZ    0.000000   0.000000   0.062312
   27  AR 1 YZ    0.000000   0.000000   0.000000
   28  AR 1 XX    0.011937   0.051679   0.000000
   29  AR 1 YY    0.011937   0.051679   0.000000
   30  AR 1 ZZ   -0.023874  -0.103358   0.000000
   31  AR 1 XY    0.000000   0.000000   0.000000
   32  AR 1 XZ    0.000000   0.000000  -0.110562
   33  AR 1 YZ    0.000000   0.000000   0.000000
   34  AR 1 XX    0.035080   0.307142   0.000000
   35  AR 1 YY    0.035080   0.307142   0.000000
   36  AR 1 ZZ   -0.070159  -0.614283   0.000000
   37  AR 1 XY    0.000000   0.000000   0.000000
   38  AR 1 XZ    0.000000   0.000000  -0.693155
   39  AR 1 YZ    0.000000   0.000000   0.000000
   40  AR 1 XXX   0.000000   0.000000  -0.002336
   41  AR 1 YYY   0.000000   0.000000   0.000000
   42  AR 1 ZZZ  -0.003450   0.002020   0.000000
   43  AR 1 XXY   0.000000   0.000000   0.000000
   44  AR 1 XXZ   0.002314  -0.001355   0.000000
   45  AR 1 YYX   0.000000   0.000000  -0.001045
   46  AR 1 YYZ   0.002314  -0.001355   0.000000
   47  AR 1 ZZX   0.000000   0.000000   0.004180
   48  AR 1 ZZY   0.000000   0.000000   0.000000
   49  AR 1 XYZ   0.000000   0.000000   0.000000
   50  AR 1 XXX   0.000000   0.000000   0.007623
   51  AR 1 YYY   0.000000   0.000000   0.000000
   52  AR 1 ZZZ   0.007153  -0.010785   0.000000
   53  AR 1 XXY   0.000000   0.000000   0.000000
   54  AR 1 XXZ  -0.004799   0.007235   0.000000
   55  AR 1 YYX   0.000000   0.000000   0.003409
   56  AR 1 YYZ  -0.004799   0.007235   0.000000
   57  AR 1 ZZX   0.000000   0.000000  -0.013637
   58  AR 1 ZZY   0.000000   0.000000   0.000000
   59  AR 1 XYZ   0.000000   0.000000   0.000000
   60  AR 2  S   -0.023029   0.008871   0.000000
   61  AR 2  S   -0.127049   0.052934   0.000000
   62  AR 2  S   -0.033368   0.078990   0.000000
   63  AR 2  S    0.037041  -0.004266   0.000000
   64  AR 2  S    1.049577  -0.161903   0.000000
   65  AR 2  S   -1.819387   0.133968   0.000000
   66  AR 2  X    0.000000   0.000000   0.013587
   67  AR 2  Y    0.000000   0.000000   0.000000
   68  AR 2  Z    0.021794  -0.047780   0.000000
   69  AR 2  X    0.000000   0.000000   0.029248
   70  AR 2  Y    0.000000   0.000000   0.000000
   71  AR 2  Z    0.018250  -0.161789   0.000000
   72  AR 2  X    0.000000   0.000000  -0.004504
   73  AR 2  Y    0.000000   0.000000   0.000000
   74  AR 2  Z   -0.022986  -0.019293   0.000000
   75  AR 2  X    0.000000   0.000000  -0.068957
   76  AR 2  Y    0.000000   0.000000   0.000000
   77  AR 2  Z   -0.219325   0.163336   0.000000
   78  AR 2  X    0.000000   0.000000   0.099348
   79  AR 2  Y    0.000000   0.000000   0.000000
   80  AR 2  Z    1.082406  -0.023980   0.000000
   81  AR 2 XX   -0.010374  -0.008493   0.000000
   82  AR 2 YY   -0.010374  -0.008493   0.000000
   83  AR 2 ZZ    0.020747   0.016985   0.000000
   84  AR 2 XY    0.000000   0.000000   0.000000
   85  AR 2 XZ    0.000000   0.000000  -0.062312
   86  AR 2 YZ    0.000000   0.000000   0.000000
   87  AR 2 XX   -0.011937   0.051679   0.000000
   88  AR 2 YY   -0.011937   0.051679   0.000000
   89  AR 2 ZZ    0.023874  -0.103358   0.000000
   90  AR 2 XY    0.000000   0.000000   0.000000
   91  AR 2 XZ    0.000000   0.000000   0.110562
   92  AR 2 YZ    0.000000   0.000000   0.000000
   93  AR 2 XX   -0.035080   0.307142   0.000000
   94  AR 2 YY   -0.035080   0.307142   0.000000
   95  AR 2 ZZ    0.070159  -0.614283   0.000000
   96  AR 2 XY    0.000000   0.000000   0.000000
   97  AR 2 XZ    0.000000   0.000000   0.693155
   98  AR 2 YZ    0.000000   0.000000   0.000000
   99  AR 2 XXX   0.000000   0.000000  -0.002336
  100  AR 2 YYY   0.000000   0.000000   0.000000
  101  AR 2 ZZZ  -0.003450  -0.002020   0.000000
  102  AR 2 XXY   0.000000   0.000000   0.000000
  103  AR 2 XXZ   0.002314   0.001355   0.000000
  104  AR 2 YYX   0.000000   0.000000  -0.001045
  105  AR 2 YYZ   0.002314   0.001355   0.000000
  106  AR 2 ZZX   0.000000   0.000000   0.004180
  107  AR 2 ZZY   0.000000   0.000000   0.000000
  108  AR 2 XYZ   0.000000   0.000000   0.000000
  109  AR 2 XXX   0.000000   0.000000   0.007623
  110  AR 2 YYY   0.000000   0.000000   0.000000
  111  AR 2 ZZZ   0.007153   0.010785   0.000000
  112  AR 2 XXY   0.000000   0.000000   0.000000
  113  AR 2 XXZ  -0.004799  -0.007235   0.000000
  114  AR 2 YYX   0.000000   0.000000   0.003409
  115  AR 2 YYZ  -0.004799  -0.007235   0.000000
  116  AR 2 ZZX   0.000000   0.000000  -0.013637
  117  AR 2 ZZY   0.000000   0.000000   0.000000
  118  AR 2 XYZ   0.000000   0.000000   0.000000

     ----------------------------------------------------------------
     PROPERTY VALUES FOR THE RHF   SELF-CONSISTENT FIELD WAVEFUNCTION
     ----------------------------------------------------------------

          ---------------------------------------
          MULLIKEN AND LOWDIN POPULATION ANALYSES
          ---------------------------------------

               ----- POPULATIONS IN EACH AO -----
                             MULLIKEN      LOWDIN
              1  AR 1  S      2.00005     1.97169
              2  AR 1  S      1.86044     1.28446
              3  AR 1  S      1.23175     0.72349
              4  AR 1  S      0.20629     0.53765
              5  AR 1  S      0.69742     0.30704
              6  AR 1  S      0.00347     0.09072
              7  AR 1  X      1.94236     1.61090
              8  AR 1  Y      1.94236     1.61090
              9  AR 1  Z      1.94227     1.61068
             10  AR 1  X      1.10287     0.60545
             11  AR 1  Y      1.10287     0.60545
             12  AR 1  Z      1.10282     0.60589
             13  AR 1  X      0.43947     0.54066
             14  AR 1  Y      0.43947     0.54066
             15  AR 1  Z      0.44002     0.54127
             16  AR 1  X      0.50695     0.27110
             17  AR 1  Y      0.50695     0.27110
             18  AR 1  Z      0.50723     0.26621
             19  AR 1  X      0.00833     0.04726
             20  AR 1  Y      0.00833     0.04726
             21  AR 1  Z      0.00835     0.05100
             22  AR 1 XX      0.00005     0.13853
             23  AR 1 YY      0.00000     0.13853
             24  AR 1 ZZ      0.00000     0.13794
             25  AR 1 XY      0.00000     0.00000
             26  AR 1 XZ      0.00000     0.00000
             27  AR 1 YZ      0.00000     0.00000
             28  AR 1 XX      0.00000     0.20064
             29  AR 1 YY      0.00000     0.20064
             30  AR 1 ZZ      0.00000     0.20069
             31  AR 1 XY      0.00000     0.00000
             32  AR 1 XZ      0.00000     0.00000
             33  AR 1 YZ      0.00000     0.00000
             34  AR 1 XX     -0.00016     0.02177
             35  AR 1 YY      0.00000     0.02177
             36  AR 1 ZZ      0.00000     0.02369
             37  AR 1 XY      0.00002     0.00000
             38  AR 1 XZ      0.00002     0.00005
             39  AR 1 YZ      0.00000     0.00005
             40  AR 1 XXX     0.00000     0.29568
             41  AR 1 YYY     0.00000     0.29568
             42  AR 1 ZZZ     0.00000     0.29627
             43  AR 1 XXY     0.00000     0.12783
             44  AR 1 XXZ     0.00000     0.12792
             45  AR 1 YYX     0.00000     0.12783
             46  AR 1 YYZ     0.00000     0.12792
             47  AR 1 ZZX     0.00000     0.12781
             48  AR 1 ZZY     0.00000     0.12781
             49  AR 1 XYZ     0.00000     0.00000
             50  AR 1 XXX     0.00000     0.20213
             51  AR 1 YYY     0.00000     0.20213
             52  AR 1 ZZZ     0.00000     0.20177
             53  AR 1 XXY    -0.00001     0.08555
             54  AR 1 XXZ     0.00000     0.08591
             55  AR 1 YYX     0.00000     0.08555
             56  AR 1 YYZ     0.00000     0.08591
             57  AR 1 ZZX     0.00000     0.08557
             58  AR 1 ZZY     0.00000     0.08557
             59  AR 1 XYZ     0.00000     0.00000
             60  AR 2  S      2.00005     1.97169
             61  AR 2  S      1.86044     1.28446
             62  AR 2  S      1.23175     0.72349
             63  AR 2  S      0.20629     0.53765
             64  AR 2  S      0.69742     0.30704
             65  AR 2  S      0.00347     0.09072
             66  AR 2  X      1.94236     1.61090
             67  AR 2  Y      1.94236     1.61090
             68  AR 2  Z      1.94227     1.61068
             69  AR 2  X      1.10287     0.60545
             70  AR 2  Y      1.10287     0.60545
             71  AR 2  Z      1.10282     0.60589
             72  AR 2  X      0.43947     0.54066
             73  AR 2  Y      0.43947     0.54066
             74  AR 2  Z      0.44002     0.54127
             75  AR 2  X      0.50695     0.27110
             76  AR 2  Y      0.50695     0.27110
             77  AR 2  Z      0.50723     0.26621
             78  AR 2  X      0.00833     0.04726
             79  AR 2  Y      0.00833     0.04726
             80  AR 2  Z      0.00835     0.05100
             81  AR 2 XX      0.00005     0.13853
             82  AR 2 YY      0.00000     0.13853
             83  AR 2 ZZ      0.00000     0.13794
             84  AR 2 XY      0.00000     0.00000
             85  AR 2 XZ      0.00000     0.00000
             86  AR 2 YZ      0.00000     0.00000
             87  AR 2 XX      0.00000     0.20064
             88  AR 2 YY      0.00000     0.20064
             89  AR 2 ZZ      0.00000     0.20069
             90  AR 2 XY      0.00000     0.00000
             91  AR 2 XZ      0.00000     0.00000
             92  AR 2 YZ      0.00000     0.00000
             93  AR 2 XX     -0.00016     0.02177
             94  AR 2 YY      0.00000     0.02177
             95  AR 2 ZZ      0.00000     0.02369
             96  AR 2 XY      0.00002     0.00000
             97  AR 2 XZ      0.00002     0.00005
             98  AR 2 YZ      0.00000     0.00005
             99  AR 2 XXX     0.00000     0.29568
            100  AR 2 YYY     0.00000     0.29568
            101  AR 2 ZZZ     0.00000     0.29627
            102  AR 2 XXY     0.00000     0.12783
            103  AR 2 XXZ     0.00000     0.12792
            104  AR 2 YYX     0.00000     0.12783
            105  AR 2 YYZ     0.00000     0.12792
            106  AR 2 ZZX     0.00000     0.12781
            107  AR 2 ZZY     0.00000     0.12781
            108  AR 2 XYZ     0.00000     0.00000
            109  AR 2 XXX     0.00000     0.20213
            110  AR 2 YYY     0.00000     0.20213
            111  AR 2 ZZZ     0.00000     0.20177
            112  AR 2 XXY    -0.00001     0.08555
            113  AR 2 XXZ     0.00000     0.08591
            114  AR 2 YYX     0.00000     0.08555
            115  AR 2 YYZ     0.00000     0.08591
            116  AR 2 ZZX     0.00000     0.08557
            117  AR 2 ZZY     0.00000     0.08557
            118  AR 2 XYZ     0.00000     0.00000

          ----- MULLIKEN ATOMIC OVERLAP POPULATIONS -----
          (OFF-DIAGONAL ELEMENTS NEED TO BE MULTIPLIED BY 2)

             1           2

    1   18.0009550
    2   -0.0009550  18.0009550

          TOTAL MULLIKEN AND LOWDIN ATOMIC POPULATIONS
       ATOM         MULL.POP.    CHARGE          LOW.POP.     CHARGE
    1 AR           18.000000    0.000000        18.000000    0.000000
    2 AR           18.000000    0.000000        18.000000    0.000000

          MULLIKEN SPHERICAL HARMONIC POPULATIONS
       ATOM           S       P       D      F      G      H      I    TOTAL
    1 AR            6.00   12.00    0.00   0.00   0.00   0.00   0.00   18.00
    2 AR            6.00   12.00    0.00   0.00   0.00   0.00   0.00   18.00

          -------------------------------
          BOND ORDER AND VALENCE ANALYSIS     BOND ORDER THRESHOLD=0.050
          -------------------------------

                   BOND                       BOND                       BOND
  ATOM PAIR DIST  ORDER      ATOM PAIR DIST  ORDER      ATOM PAIR DIST  ORDER

                       TOTAL       BONDED        FREE
      ATOM            VALENCE     VALENCE     VALENCE
    1 AR                0.001       0.001       0.000
    2 AR                0.001       0.001       0.000

          ---------------------
          ELECTROSTATIC MOMENTS
          ---------------------

 POINT   1           X           Y           Z (BOHR)    CHARGE
                 0.000000    0.000000    0.000000        0.00 (A.U.)
         DX          DY          DZ         /D/  (DEBYE)
     0.000000    0.000000    0.000000    0.000000
 ...... END OF PROPERTY EVALUATION ......
 CPU     0: STEP CPU TIME=     0.02 TOTAL CPU TIME=     1163.5 (   19.4 MIN)
 TOTAL WALL CLOCK TIME=     1163.5 SECONDS, CPU UTILIZATION IS 100.00%
  $VIB   
          IVIB=   0 IATOM=   0 ICOORD=   0 E=    -1054.0979502707
  0.000000000E+00 0.000000000E+00 5.808407578E-07 0.000000000E+00 0.000000000E+00
 -5.808407578E-07
  0.000000000E+00 0.000000000E+00 0.000000000E+00
 ......END OF GEOMETRY SEARCH......
 CPU     0: STEP CPU TIME=     0.00 TOTAL CPU TIME=     1163.5 (   19.4 MIN)
 TOTAL WALL CLOCK TIME=     1163.5 SECONDS, CPU UTILIZATION IS 100.00%


     *********************************************************
     THE HESSIAN WILL NOW BE COMPUTED AT THE STATIONARY POINT.
     *********************************************************

     ---------------------------------
     HESSIAN MATRIX CONTROL PARAMETERS
     ---------------------------------
     METHOD=NONE       NVIB  =       2   VIBSIZ= 0.01000
     RDHESS=       F   PURIFY=       F   PRTIFC=       F
     VIBANL=       F   DECOMP=       F   PROJCT=       F
     SCLFAC= 1.00000   PRTSCN=       F   NPRT  =       0
     PULCOR=       F   NPUN  =       0   REDOVB=       T
 *** ERROR: METHOD = ANALYTIC, SEMINUM, OR FULLNUM ONLY

 PLEASE DO NOT USE NUMGRD=.TRUE. DURING HESSIAN JOBS,
 INSTEAD USE METHOD=ANALYTIC, SEMINUM, OR FULLNUM ONLY.
 (IF NECESSARY, RUN THE HESSIAN IN A SEPARATE JOB THAN
 A GEOMETRY SEARCH (I.E. AVOID HESS=CALC OR HSSEND=.TRUE.)
 ERROR IN $FORCE INPUT, PLEASE FIX AND TRY AGAIN.
 EXECUTION OF GAMESS TERMINATED -ABNORMALLY- AT Tue Feb 16 18:42:01 2016
                  2803963  WORDS OF DYNAMIC MEMORY USED
 CPU     0: STEP CPU TIME=     0.00 TOTAL CPU TIME=     1163.5 (   19.4 MIN)
 TOTAL WALL CLOCK TIME=     1163.5 SECONDS, CPU UTILIZATION IS 100.00%

job aborted:
[ranks] message

[0] process exited without calling finalize

[1-3] terminated

---- error analysis -----

[0] on PHYS0BHA-16
D:\STUDENTS\gamess.64\gamess.00.exe ended prematurely and may have crashed. exit code 0xc0000417

---- error analysis -----
           Disk usage (in bytes)       
 ========================================
 ----------------------------------------
            Local date and time          
 ========================================
16.02.2016 - 18:42:13.15                          
