          ******************************************************
          *         GAMESS VERSION =  1 MAY 2013 (R1)          *
          *             FROM IOWA STATE UNIVERSITY             *
          * M.W.SCHMIDT, K.K.BALDRIDGE, J.A.BOATZ, S.T.ELBERT, *
          *   M.S.GORDON, J.H.JENSEN, S.KOSEKI, N.MATSUNAGA,   *
          *          K.A.NGUYEN, S.J.SU, T.L.WINDUS,           *
          *       TOGETHER WITH M.DUPUIS, J.A.MONTGOMERY       *
          *         J.COMPUT.CHEM.  14, 1347-1363(1993)        *
          *************** 64 BIT WINDOWS VERSION ***************

  SINCE 1993, STUDENTS AND POSTDOCS WORKING AT IOWA STATE UNIVERSITY
  AND ALSO IN THEIR VARIOUS JOBS AFTER LEAVING ISU HAVE MADE IMPORTANT
  CONTRIBUTIONS TO THE CODE:
     IVANA ADAMOVIC, CHRISTINE AIKENS, YURI ALEXEEV, POOJA ARORA,
     ANDREY ASADCHEV, ROB BELL, PRADIPTA BANDYOPADHYAY, JONATHAN BENTZ,
     BRETT BODE, GALINA CHABAN, WEI CHEN, CHEOL HO CHOI, PAUL DAY,
     ALBERT DEFUSCO, TIM DUDLEY, DMITRI FEDOROV, GRAHAM FLETCHER,
     MARK FREITAG, KURT GLAESEMANN, DAN KEMP, GRANT MERRILL,
     NORIYUKI MINEZAWA, JONATHAN MULLIN, TAKESHI NAGATA,
     SEAN NEDD, HEATHER NETZLOFF, BOSILJKA NJEGIC, RYAN OLSON, MIKE PAK,
     JIM SHOEMAKER, LYUDMILA SLIPCHENKO, SAROM SOK, JIE SONG,
     TETSUYA TAKETSUGU, SIMON WEBB, SOOHAENG YOO, FEDERICO ZAHARIEV

  ADDITIONAL CODE HAS BEEN PROVIDED BY COLLABORATORS IN OTHER GROUPS:
     IOWA STATE UNIVERSITY:
          JOE IVANIC, LAIMUTIS BYTAUTAS, KLAUS RUEDENBERG
     UNIVERSITY OF TOKYO: KIMIHIKO HIRAO, TAKAHITO NAKAJIMA,
          TAKAO TSUNEDA, MUNEAKI KAMIYA, SUSUMU YANAGISAWA,
          KIYOSHI YAGI, MAHITO CHIBA, SEIKEN TOKURA, NAOAKI KAWAKAMI
     UNIVERSITY OF AARHUS: FRANK JENSEN
     UNIVERSITY OF IOWA: VISVALDAS KAIRYS, HUI LI
     NATIONAL INST. OF STANDARDS AND TECHNOLOGY: WALT STEVENS, DAVID GARMER
     UNIVERSITY OF PISA: BENEDETTA MENNUCCI, JACOPO TOMASI
     UNIVERSITY OF MEMPHIS: HENRY KURTZ, PRAKASHAN KORAMBATH
     UNIVERSITY OF ALBERTA: TOBY ZENG, MARIUSZ KLOBUKOWSKI
     UNIVERSITY OF NEW ENGLAND: MARK SPACKMAN
     MIE UNIVERSITY: HIROAKI UMEDA
     MICHIGAN STATE UNIVERSITY:
          KAROL KOWALSKI, MARTA WLOCH, JEFFREY GOUR, JESSE LUTZ,
          WEI LI, PIOTR PIECUCH
     UNIVERSITY OF SILESIA: MONIKA MUSIAL, STANISLAW KUCHARSKI
     FACULTES UNIVERSITAIRES NOTRE-DAME DE LA PAIX:
          OLIVIER QUINET, BENOIT CHAMPAGNE
     UNIVERSITY OF CALIFORNIA - SANTA BARBARA: BERNARD KIRTMAN
     INSTITUTE FOR MOLECULAR SCIENCE:
          KAZUYA ISHIMURA, MICHIO KATOUDA, AND SHIGERU NAGASE
     UNIVERSITY OF NOTRE DAME: DAN CHIPMAN
     KYUSHU UNIVERSITY:
          HARUYUKI NAKANO,
          FENG LONG GU, JACEK KORCHOWIEC, MARCIN MAKOWSKI, AND YURIKO AOKI,
          HIROTOSHI MORI AND EISAKU MIYOSHI
     PENNSYLVANIA STATE UNIVERSITY:
          TZVETELIN IORDANOV, CHET SWALINA, JONATHAN SKONE,
          SHARON HAMMES-SCHIFFER
     WASEDA UNIVERSITY:
          MASATO KOBAYASHI, TOMOKO AKAMA, TSUGUKI TOUMA,
          TAKESHI YOSHIKAWA, YASUHIRO IKABATA, HIROMI NAKAI
     NANJING UNIVERSITY: SHUHUA LI
     UNIVERSITY OF NEBRASKA:
          PEIFENG SU, DEJUN SI, NANDUN THELLAMUREGE, YALI WANG, HUI LI
     UNIVERSITY OF ZURICH:
          ROBERTO PEVERATI, KIM BALDRIDGE
     N. COPERNICUS UNIVERSITY AND JACKSON STATE UNIVERSITY:
          MARIA BARYSZ


 PARALLEL VERSION RUNNING ON     4 PROCESSORS IN     4 NODES.

 EXECUTION OF GAMESS BEGUN Fri Oct 13 14:02:56 2017

            ECHO OF THE FIRST FEW INPUT CARDS -
 INPUT CARD>! Внимание - это расчет в базисе STO-3G надо задать свой базис!!!               
 INPUT CARD> $CONTRL runtyp=sadpoint UNITS=ANGS mplevl=2                                    
 INPUT CARD> ispher=1                                                                       
 INPUT CARD> $END                                                                           
 INPUT CARD> $basis gbasis=ccd $end                                                         
 INPUT CARD> $statpt nstep=100 hssend=.t.  ifolow=1 hess=calc                               
 INPUT CARD>! ihrep=3                                                                       
 INPUT CARD> $end                                                                           
 INPUT CARD> $DATA                                                                          
 INPUT CARD>                                                                                
 INPUT CARD> c1                                                                             
 INPUT CARD> C           6.0   0.2642359360  -1.4309335937  -0.2523202968                   
 INPUT CARD> C           6.0   0.1970183299  -0.2837785847   0.3775331574                   
 INPUT CARD> C           6.0  -1.0155537066   0.6125703758   0.3788112481                   
 INPUT CARD> C           6.0  -1.0818108284   1.7574362218  -0.2552232382                   
 INPUT CARD> H           1.0   1.1570929514  -2.0407920759  -0.2328919433                   
 INPUT CARD> H           1.0  -0.5621258735  -1.8232604858  -0.8299601867                   
 INPUT CARD> H           1.0   1.0547639303   0.0759404075   0.9385819343                   
 INPUT CARD> H           1.0  -1.8707955304   0.2574766923   0.9466928150                   
 INPUT CARD> H           1.0  -1.9709232082   2.3727166926  -0.2340665552                   
 INPUT CARD> H           1.0  -0.2559020003   2.1426243502  -0.8371569346                   
 INPUT CARD> $end                                                                           
    1000000 WORDS OF MEMORY AVAILABLE

     BASIS OPTIONS
     -------------
     GBASIS=CCD          IGAUSS=       0      POLAR=NONE    
     NDFUNC=       0     NFFUNC=       0     DIFFSP=       F
     NPFUNC=       0      DIFFS=       F     BASNAM=        


     RUN TITLE
     ---------
                                                                                 

 THE POINT GROUP OF THE MOLECULE IS C1      
 THE ORDER OF THE PRINCIPAL AXIS IS     0

 ATOM      ATOMIC                      COORDINATES (BOHR)
           CHARGE         X                   Y                   Z
 C           6.0     0.4993335151       -2.7040723987       -0.4768162221
 C           6.0     0.3723106581       -0.5362637663        0.7134342188
 C           6.0    -1.9191182313        1.1575901585        0.7158494600
 C           6.0    -2.0443260362        3.3210729001       -0.4823019859
 H           1.0     2.1865886205       -3.8565378214       -0.4401019576
 H           1.0    -1.0622638715       -3.4454627224       -1.5683973336
 H           1.0     1.9932148100        0.1435065616        1.7736626729
 H           1.0    -3.5352909315        0.4865603967        1.7889900149
 H           1.0    -3.7245048063        4.4837843955       -0.4423216522
 H           1.0    -0.4835846603        4.0489729165       -1.5819972151

          INTERNUCLEAR DISTANCES (ANGS.)
          ------------------------------

                1 C          2 C          3 C          4 C          5 H     

   1 C       0.0000000    1.3104191 *  2.4924079 *  3.4608601    1.0814335 *
   2 C       1.3104191 *  0.0000000    1.5079039 *  2.4904503 *  2.0931934 *
   3 C       2.4924079 *  1.5079039 *  0.0000000    1.3103845 *  3.4835193  
   4 C       3.4608601    2.4904503 *  1.3103845 *  0.0000000    4.4090506  
   5 H       1.0814335 *  2.0931934 *  3.4835193    4.4090506    0.0000000  
   6 H       1.0818790 *  2.0986530 *  2.7568092 *  3.6635753    1.8329004 *
   7 H       2.0769814 *  1.0862325 *  2.2107759 *  2.9694361 *  2.4214414 *
   8 H       2.9743438 *  2.2119571 *  1.0862871 *  2.0777338 *  3.9801468  
   9 H       4.4118052    3.4829573    2.0943890 *  1.0814520 *  5.4095791  
  10 H       3.6582638    2.7510071 *  2.0968344 *  1.0812688 *  4.4567549  

                6 H          7 H          8 H          9 H         10 H     

   1 C       1.0818790 *  2.0769814 *  2.9743438 *  4.4118052    3.6582638  
   2 C       2.0986530 *  1.0862325 *  2.2119571 *  3.4829573    2.7510071 *
   3 C       2.7568092 *  2.2107759 *  1.0862871 *  2.0943890 *  2.0968344 *
   4 C       3.6635753    2.9694361 *  2.0777338 *  1.0814520 *  1.0812688 *
   5 H       1.8329004 *  2.4214414 *  3.9801468    5.4095791    4.4567549  
   6 H       0.0000000    3.0576196    3.0329160    4.4660971    3.9776962  
   7 H       3.0576196    0.0000000    2.9311976 *  3.9755589    3.0236197  
   8 H       3.0329160    2.9311976 *  0.0000000    2.4245533 *  3.0567602  
   9 H       4.4660971    3.9755589    2.4245533 *  0.0000000    1.8324733 *
  10 H       3.9776962    3.0236197    3.0567602    1.8324733 *  0.0000000  

  * ... LESS THAN  3.000


     ATOMIC BASIS SET
     ----------------
 THE CONTRACTED PRIMITIVE FUNCTIONS HAVE BEEN UNNORMALIZED
 THE CONTRACTED BASIS FUNCTIONS ARE NOW NORMALIZED TO UNITY

  SHELL TYPE  PRIMITIVE        EXPONENT          CONTRACTION COEFFICIENT(S)

 C         

      1   S       1          6665.0000000    0.000691583963
      1   S       2          1000.0000000    0.005325796153
      1   S       3           228.0000000    0.027060721042
      1   S       4            64.7100000    0.101656846141
      1   S       5            21.0600000    0.274574823617
      1   S       6             7.4950000    0.448294318924
      1   S       7             2.7970000    0.284902610715
      1   S       8             0.5215000    0.015194859206

      2   S       9          6665.0000000   -0.000293269653
      2   S      10          1000.0000000   -0.002318035474
      2   S      11           228.0000000   -0.011499786039
      2   S      12            64.7100000   -0.046826727010
      2   S      13            21.0600000   -0.128466168750
      2   S      14             7.4950000   -0.301266272463
      2   S      15             2.7970000   -0.255630702330
      2   S      16             0.5215000    1.093793361012

      3   S      17             0.1596000    1.000000000000

      4   P      18             9.4390000    0.056979251590
      4   P      19             2.0020000    0.313207211501
      4   P      20             0.5456000    0.760376741738

      5   P      21             0.1517000    1.000000000000

      6   D      22             0.5500000    1.000000000000

 C         

      7   S      23          6665.0000000    0.000691583963
      7   S      24          1000.0000000    0.005325796153
      7   S      25           228.0000000    0.027060721042
      7   S      26            64.7100000    0.101656846141
      7   S      27            21.0600000    0.274574823617
      7   S      28             7.4950000    0.448294318924
      7   S      29             2.7970000    0.284902610715
      7   S      30             0.5215000    0.015194859206

      8   S      31          6665.0000000   -0.000293269653
      8   S      32          1000.0000000   -0.002318035474
      8   S      33           228.0000000   -0.011499786039
      8   S      34            64.7100000   -0.046826727010
      8   S      35            21.0600000   -0.128466168750
      8   S      36             7.4950000   -0.301266272463
      8   S      37             2.7970000   -0.255630702330
      8   S      38             0.5215000    1.093793361012

      9   S      39             0.1596000    1.000000000000

     10   P      40             9.4390000    0.056979251590
     10   P      41             2.0020000    0.313207211501
     10   P      42             0.5456000    0.760376741738

     11   P      43             0.1517000    1.000000000000

     12   D      44             0.5500000    1.000000000000

 C         

     13   S      45          6665.0000000    0.000691583963
     13   S      46          1000.0000000    0.005325796153
     13   S      47           228.0000000    0.027060721042
     13   S      48            64.7100000    0.101656846141
     13   S      49            21.0600000    0.274574823617
     13   S      50             7.4950000    0.448294318924
     13   S      51             2.7970000    0.284902610715
     13   S      52             0.5215000    0.015194859206

     14   S      53          6665.0000000   -0.000293269653
     14   S      54          1000.0000000   -0.002318035474
     14   S      55           228.0000000   -0.011499786039
     14   S      56            64.7100000   -0.046826727010
     14   S      57            21.0600000   -0.128466168750
     14   S      58             7.4950000   -0.301266272463
     14   S      59             2.7970000   -0.255630702330
     14   S      60             0.5215000    1.093793361012

     15   S      61             0.1596000    1.000000000000

     16   P      62             9.4390000    0.056979251590
     16   P      63             2.0020000    0.313207211501
     16   P      64             0.5456000    0.760376741738

     17   P      65             0.1517000    1.000000000000

     18   D      66             0.5500000    1.000000000000

 C         

     19   S      67          6665.0000000    0.000691583963
     19   S      68          1000.0000000    0.005325796153
     19   S      69           228.0000000    0.027060721042
     19   S      70            64.7100000    0.101656846141
     19   S      71            21.0600000    0.274574823617
     19   S      72             7.4950000    0.448294318924
     19   S      73             2.7970000    0.284902610715
     19   S      74             0.5215000    0.015194859206

     20   S      75          6665.0000000   -0.000293269653
     20   S      76          1000.0000000   -0.002318035474
     20   S      77           228.0000000   -0.011499786039
     20   S      78            64.7100000   -0.046826727010
     20   S      79            21.0600000   -0.128466168750
     20   S      80             7.4950000   -0.301266272463
     20   S      81             2.7970000   -0.255630702330
     20   S      82             0.5215000    1.093793361012

     21   S      83             0.1596000    1.000000000000

     22   P      84             9.4390000    0.056979251590
     22   P      85             2.0020000    0.313207211501
     22   P      86             0.5456000    0.760376741738

     23   P      87             0.1517000    1.000000000000

     24   D      88             0.5500000    1.000000000000

 H         

     25   S      89            13.0100000    0.033498726390
     25   S      90             1.9620000    0.234800801174
     25   S      91             0.4446000    0.813682957883

     26   S      92             0.1220000    1.000000000000

     27   P      93             0.7270000    1.000000000000

 H         

     28   S      94            13.0100000    0.033498726390
     28   S      95             1.9620000    0.234800801174
     28   S      96             0.4446000    0.813682957883

     29   S      97             0.1220000    1.000000000000

     30   P      98             0.7270000    1.000000000000

 H         

     31   S      99            13.0100000    0.033498726390
     31   S     100             1.9620000    0.234800801174
     31   S     101             0.4446000    0.813682957883

     32   S     102             0.1220000    1.000000000000

     33   P     103             0.7270000    1.000000000000

 H         

     34   S     104            13.0100000    0.033498726390
     34   S     105             1.9620000    0.234800801174
     34   S     106             0.4446000    0.813682957883

     35   S     107             0.1220000    1.000000000000

     36   P     108             0.7270000    1.000000000000

 H         

     37   S     109            13.0100000    0.033498726390
     37   S     110             1.9620000    0.234800801174
     37   S     111             0.4446000    0.813682957883

     38   S     112             0.1220000    1.000000000000

     39   P     113             0.7270000    1.000000000000

 H         

     40   S     114            13.0100000    0.033498726390
     40   S     115             1.9620000    0.234800801174
     40   S     116             0.4446000    0.813682957883

     41   S     117             0.1220000    1.000000000000

     42   P     118             0.7270000    1.000000000000

 TOTAL NUMBER OF BASIS SET SHELLS             =   42
 NUMBER OF CARTESIAN GAUSSIAN BASIS FUNCTIONS =   90
 NOTE: THIS RUN WILL RESTRICT THE MO VARIATION SPACE TO SPHERICAL HARMONICS.
 THE NUMBER OF ORBITALS KEPT IN THE VARIATIONAL SPACE WILL BE PRINTED LATER.
 NUMBER OF ELECTRONS                          =   30
 CHARGE OF MOLECULE                           =    0
 SPIN MULTIPLICITY                            =    1
 NUMBER OF OCCUPIED ORBITALS (ALPHA)          =   15
 NUMBER OF OCCUPIED ORBITALS (BETA )          =   15
 TOTAL NUMBER OF ATOMS                        =   10
 THE NUCLEAR REPULSION ENERGY IS      104.1485652308

     $NEO OPTIONS
     ------------
     NUNIQN=       0     BASNUC=DZSNB        NEOSCF=NONE    
     NEOCI =NONE         NUMULT=       2     NUCST =       1
     NAUXNB=       0     VNUCEX=       F     NUCOPT=       F
     NTAUXB=       0     NEOHSS=       F     HSSINI=READH   
     HSSUPD=POWELLUP     DIRNUC=       F     SYMNUC=       F
     QMTOLN= 0.0E+00     USRDEX=       F
     POSNEO=       F     POSPRP=       F
     NEONCI=       F     LOCORB=       0

     $CONTRL OPTIONS
     ---------------
 SCFTYP=RHF          RUNTYP=SADPOINT     EXETYP=RUN     
 MPLEVL=       2     CITYP =NONE         CCTYP =NONE         VBTYP =NONE    
 DFTTYP=NONE         TDDFT =NONE    
 MULT  =       1     ICHARG=       0     NZVAR =       0     COORD =UNIQUE  
 PP    =NONE         RELWFN=NONE         LOCAL =NONE         NUMGRD=       F
 ISPHER=       1     NOSYM =       0     MAXIT =      30     UNITS =ANGS    
 PLTORB=       F     MOLPLT=       F     AIMPAC=       F     FRIEND=        
 NPRINT=       7     IREST =       0     GEOM  =INPUT   
 NORMF =       0     NORMP =       0     ITOL  =      20     ICUT  =       9
 INTTYP=BEST         GRDTYP=BEST         QMTTOL= 1.0E-06

     $SYSTEM OPTIONS
     ---------------
  REPLICATED MEMORY=     1000000 WORDS (ON EVERY NODE).
 DISTRIBUTED MEMDDI=           0 MILLION WORDS IN AGGREGATE,
 MEMDDI DISTRIBUTED OVER   4 PROCESSORS IS           0 WORDS/PROCESSOR.
 TOTAL MEMORY REQUESTED ON EACH PROCESSOR=     1000000 WORDS.
 TIMLIM=      525600.00 MINUTES, OR     365.0 DAYS.
 PARALL= T  BALTYP=  DLB     KDIAG=    0  COREFL= F
 MXSEQ2=     300 MXSEQ3=     150

          ----------------
          PROPERTIES INPUT
          ----------------

     MOMENTS            FIELD           POTENTIAL          DENSITY
 IEMOM =       1   IEFLD =       0   IEPOT =       0   IEDEN =       0
 WHERE =COMASS     WHERE =NUCLEI     WHERE =NUCLEI     WHERE =NUCLEI  
 OUTPUT=BOTH       OUTPUT=BOTH       OUTPUT=BOTH       OUTPUT=BOTH    
 IEMINT=       0   IEFINT=       0                     IEDINT=       0
                                                       MORB  =       0
          EXTRAPOLATION IN EFFECT
          SOSCF IN EFFECT
 ORBITAL PRINTING OPTION: NPREO=     1    90     2     1

     -------------------------------
     INTEGRAL TRANSFORMATION OPTIONS
     -------------------------------
     NWORD  =            0
     CUTOFF = 1.0E-09     MPTRAN =       0
     DIRTRF =       F     AOINTS =DUP     

          ----------------------
          INTEGRAL INPUT OPTIONS
          ----------------------
 NOPK  =       1 NORDER=       0 SCHWRZ=       T

          -----------------------
          MP2 CONTROL INFORMATION
          -----------------------
          NACORE =        4  NBCORE =        4
          LMOMP2 =        F  AOINTS = DUP     
          METHOD =        2  NWORD  =               0
          MP2PRP =        F  OSPT   = NONE    
          CUTOFF = 1.00E-09  CPHFBS = BASISAO 
          CODE   = DDI     

          NUMBER OF CORE -A-  ORBITALS =     4
          NUMBER OF CORE -B-  ORBITALS =     4
          NUMBER OF OCC. -A-  ORBITALS =    15
          NUMBER OF OCC. -B-  ORBITALS =    15
          NUMBER OF MOLECULAR ORBITALS =    90
          NUMBER OF   BASIS  FUNCTIONS =    90


     ------------------------------------------
     THE POINT GROUP IS C1 , NAXIS= 0, ORDER= 1
     ------------------------------------------

 -- VARIATIONAL SPACE WILL BE RESTRICTED TO PURE SPHERICAL HARMONICS ONLY --
 AFTER EXCLUDING CONTAMINANT COMBINATIONS FROM THE CARTESIAN GAUSSIAN BASIS
 SET, THE NUMBER OF SPHERICAL HARMONICS KEPT IN THE VARIATION SPACE IS   86

     DIMENSIONS OF THE SYMMETRY SUBSPACES ARE
 A   =   86

 ..... DONE SETTING UP THE RUN .....
 CPU     0: STEP CPU TIME=     0.02 TOTAL CPU TIME=        0.0 (    0.0 MIN)
 TOTAL WALL CLOCK TIME=        0.0 SECONDS, CPU UTILIZATION IS 100.00%


          -----------------------------
          STATIONARY POINT LOCATION RUN
          -----------------------------

 OBTAINING INITIAL HESSIAN, HESS=CALC    

     ---------------------------------
     HESSIAN MATRIX CONTROL PARAMETERS
     ---------------------------------
     METHOD=SEMINUM    NVIB  =       2   VIBSIZ= 0.01000
     RDHESS=       F   PURIFY=       F   PRTIFC=       F
     VIBANL=       F   DECOMP=       F   PROJCT=       F
     SCLFAC= 1.00000   PRTSCN=       F   NPRT  =       0
     PULCOR=       F   NPUN  =       0   REDOVB=       T
1   ATOM  0
                                        -------------------
   COORD  0                             NUCLEAR COORDINATES
                                        -------------------
     VIB  0

                       ATOM             X              Y              Z

                 1  C                0.499334      -2.704072      -0.476816
                 2  C                0.372311      -0.536264       0.713434
                 3  C               -1.919118       1.157590       0.715849
                 4  C               -2.044326       3.321073      -0.482302
                 5  H                2.186589      -3.856538      -0.440102
                 6  H               -1.062264      -3.445463      -1.568397
                 7  H                1.993215       0.143507       1.773663
                 8  H               -3.535291       0.486560       1.788990
                 9  H               -3.724505       4.483784      -0.442322
                10  H               -0.483585       4.048973      -1.581997

          ********************
          1 ELECTRON INTEGRALS
          ********************
 ...... END OF ONE-ELECTRON INTEGRALS ......
 CPU     0: STEP CPU TIME=     0.00 TOTAL CPU TIME=        0.0 (    0.0 MIN)
 TOTAL WALL CLOCK TIME=        0.0 SECONDS, CPU UTILIZATION IS 100.00%

          -------------
          GUESS OPTIONS
          -------------
          GUESS =HUCKEL            NORB  =       0          NORDER=       0
          MIX   =       F          PRTMO =       F          PUNMO =       F
          TOLZ  = 1.0E-08          TOLE  = 1.0E-05
          SYMDEN=       F          PURIFY=       F

 INITIAL GUESS ORBITALS GENERATED BY HUCKEL   ROUTINE.
 HUCKEL GUESS REQUIRES     68800 WORDS.

 STATISTICS FOR GENERATION OF SYMMETRY ORBITAL -Q- MATRIX
 NUMBER OF CARTESIAN ATOMIC ORBITALS=         90
 NUMBER OF SPHERICAL CONTAMINANTS DROPPED=     4
 NUMBER OF LINEARLY DEPENDENT MOS DROPPED=     0
 TOTAL NUMBER OF MOS IN VARIATION SPACE=      86

 SYMMETRIES FOR INITIAL GUESS ORBITALS FOLLOW.   BOTH SET(S).
    15 ORBITALS ARE OCCUPIED (    4 CORE ORBITALS).
     5=A        6=A        7=A        8=A        9=A       10=A       11=A   
    12=A       13=A       14=A       15=A       16=A       17=A       18=A   
    19=A       20=A       21=A       22=A       23=A       24=A       25=A   
 ...... END OF INITIAL ORBITAL SELECTION ......
 CPU     0: STEP CPU TIME=     0.01 TOTAL CPU TIME=        0.0 (    0.0 MIN)
 TOTAL WALL CLOCK TIME=        0.0 SECONDS, CPU UTILIZATION IS 100.00%

                    ----------------------
                    AO INTEGRAL TECHNOLOGY
                    ----------------------
     S,P,L SHELL ROTATED AXIS INTEGRALS, REPROGRAMMED BY
        KAZUYA ISHIMURA (IMS) AND JOSE SIERRA (SYNSTAR).
     S,P,D,L SHELL ROTATED AXIS INTEGRALS PROGRAMMED BY
        KAZUYA ISHIMURA (INSTITUTE FOR MOLECULAR SCIENCE).
     S,P,D,F,G SHELL TO TOTAL QUARTET ANGULAR MOMENTUM SUM 5,
        ERIC PROGRAM BY GRAHAM FLETCHER (ELORET AND NASA ADVANCED
        SUPERCOMPUTING DIVISION, AMES RESEARCH CENTER).
     S,P,D,F,G,L SHELL GENERAL RYS QUADRATURE PROGRAMMED BY
        MICHEL DUPUIS (PACIFIC NORTHWEST NATIONAL LABORATORY).

          --------------------
          2 ELECTRON INTEGRALS
          --------------------

 THE -PK- OPTION IS OFF, THE INTEGRALS ARE NOT IN SUPERMATRIX FORM.
 STORING   15000 INTEGRALS/RECORD ON DISK, USING 12 BYTES/INTEGRAL.
 TWO ELECTRON INTEGRAL EVALUATION REQUIRES   91299 WORDS OF MEMORY.
 SCHWARZ INEQUALITY OVERHEAD:      4095 INTEGRALS, T=        0.00
 II,JST,KST,LST =  1  1  1  1 NREC =         1 INTLOC =    1
 II,JST,KST,LST =  2  1  1  1 NREC =         1 INTLOC =    1
 II,JST,KST,LST =  3  1  1  1 NREC =         1 INTLOC =    1
 II,JST,KST,LST =  4  1  1  1 NREC =         1 INTLOC =    2
 II,JST,KST,LST =  5  1  1  1 NREC =         1 INTLOC =    2
 II,JST,KST,LST =  6  1  1  1 NREC =         1 INTLOC =    2
 II,JST,KST,LST =  7  1  1  1 NREC =         1 INTLOC =    2
 II,JST,KST,LST =  8  1  1  1 NREC =         1 INTLOC =    2
 II,JST,KST,LST =  9  1  1  1 NREC =         1 INTLOC =    2
 II,JST,KST,LST = 10  1  1  1 NREC =         1 INTLOC =    2
 II,JST,KST,LST = 11  1  1  1 NREC =         1 INTLOC =    2
 II,JST,KST,LST = 12  1  1  1 NREC =         1 INTLOC =    2
 II,JST,KST,LST = 13  1  1  1 NREC =         1 INTLOC =    2
 II,JST,KST,LST = 14  1  1  1 NREC =         1 INTLOC =    2
 II,JST,KST,LST = 15  1  1  1 NREC =         1 INTLOC =    2
 II,JST,KST,LST = 16  1  1  1 NREC =         1 INTLOC =    2
 II,JST,KST,LST = 17  1  1  1 NREC =         1 INTLOC =    2
 II,JST,KST,LST = 18  1  1  1 NREC =         1 INTLOC = 4817
 II,JST,KST,LST = 19  1  1  1 NREC =         1 INTLOC = 4817
 II,JST,KST,LST = 20  1  1  1 NREC =         1 INTLOC = 4822
 II,JST,KST,LST = 21  1  1  1 NREC =         1 INTLOC =13935
 II,JST,KST,LST = 22  1  1  1 NREC =         2 INTLOC = 7621
 II,JST,KST,LST = 23  1  1  1 NREC =         7 INTLOC = 3087
 II,JST,KST,LST = 24  1  1  1 NREC =         8 INTLOC =14104
 II,JST,KST,LST = 25  1  1  1 NREC =        23 INTLOC =  652
 II,JST,KST,LST = 26  1  1  1 NREC =        24 INTLOC =11153
 II,JST,KST,LST = 27  1  1  1 NREC =        27 INTLOC = 7499
 II,JST,KST,LST = 28  1  1  1 NREC =        32 INTLOC =12521
 II,JST,KST,LST = 29  1  1  1 NREC =        36 INTLOC = 2884
 II,JST,KST,LST = 30  1  1  1 NREC =        39 INTLOC = 5049
 II,JST,KST,LST = 31  1  1  1 NREC =        48 INTLOC = 8554
 II,JST,KST,LST = 32  1  1  1 NREC =        51 INTLOC = 2715
 II,JST,KST,LST = 33  1  1  1 NREC =        54 INTLOC = 8912
 II,JST,KST,LST = 34  1  1  1 NREC =        64 INTLOC =  145
 II,JST,KST,LST = 35  1  1  1 NREC =        66 INTLOC = 4630
 II,JST,KST,LST = 36  1  1  1 NREC =        69 INTLOC =  859
 II,JST,KST,LST = 37  1  1  1 NREC =        84 INTLOC = 4546
 II,JST,KST,LST = 38  1  1  1 NREC =        88 INTLOC =13240
 II,JST,KST,LST = 39  1  1  1 NREC =        94 INTLOC =12211
 II,JST,KST,LST = 40  1  1  1 NREC =       101 INTLOC =12698
 II,JST,KST,LST = 41  1  1  1 NREC =       104 INTLOC =13026
 II,JST,KST,LST = 42  1  1  1 NREC =       109 INTLOC = 1886
 SCHWARZ INEQUALITY TEST SKIPPED       23315 INTEGRAL BLOCKS.
 TOTAL NUMBER OF NONZERO TWO-ELECTRON INTEGRALS =             7470701
        500 INTEGRAL RECORDS WERE STORED ON DISK FILE  8.
  ...... END OF TWO-ELECTRON INTEGRALS .....
 CPU     0: STEP CPU TIME=     0.33 TOTAL CPU TIME=        0.4 (    0.0 MIN)
 TOTAL WALL CLOCK TIME=        0.4 SECONDS, CPU UTILIZATION IS 100.00%

          --------------------------
                 RHF SCF CALCULATION
          --------------------------

     NUCLEAR ENERGY =       104.1485652308
     MAXIT =   30     NPUNCH=    2
     EXTRAP=T  DAMP=F  SHIFT=F  RSTRCT=F  DIIS=F  DEM=F  SOSCF=T
     DENSITY MATRIX CONV=  1.00E-06
     SOSCF WILL OPTIMIZE    1065 ORBITAL ROTATIONS, SOGTOL=   0.250
     MEMORY REQUIRED FOR RHF ITERS=     92220 WORDS.

 ITER EX DEM     TOTAL ENERGY        E CHANGE  DENSITY CHANGE     ORB. GRAD
   1  0  0     -154.5486301791  -154.5486301791   0.129314083   0.000000000
          ---------------START SECOND ORDER SCF---------------
   2  1  0     -154.8984580079    -0.3498278289   0.065740402   0.044280422
   3  2  0     -154.9200478581    -0.0215898501   0.020306640   0.013038027
   4  3  0     -154.9243513818    -0.0043035237   0.005990972   0.002940174
   5  4  0     -154.9245444817    -0.0001930999   0.001694214   0.001108563
   6  5  0     -154.9245716984    -0.0000272167   0.000371877   0.000200905
   7  6  0     -154.9245732591    -0.0000015607   0.000189669   0.000067995
   8  7  0     -154.9245735096    -0.0000002505   0.000076650   0.000021480
   9  8  0     -154.9245735292    -0.0000000196   0.000015914   0.000006044
  10  9  0     -154.9245735308    -0.0000000016   0.000002937   0.000001080
  11 10  0     -154.9245735309    -0.0000000001   0.000001220   0.000000284
  12 11  0     -154.9245735309     0.0000000000   0.000000224   0.000000071

          -----------------
          DENSITY CONVERGED
          -----------------
     TIME TO FORM FOCK OPERATORS=       0.4 SECONDS (       0.0 SEC/ITER)
     TIME TO SOLVE SCF EQUATIONS=       0.0 SECONDS (       0.0 SEC/ITER)

 FINAL RHF ENERGY IS     -154.9245735309 AFTER  12 ITERATIONS

          ------------
          EIGENVECTORS
          ------------

                      1          2          3          4          5
                  -11.2397   -11.2390   -11.2281   -11.2281    -1.0875
                     A          A          A          A          A   
    1  C  1  S    0.056089   0.062004   0.998062  -0.031227  -0.013915
    2  C  1  S   -0.000420   0.000120   0.004315  -0.000140   0.179530
    3  C  1  S    0.003694  -0.000628  -0.008013   0.000212   0.070888
    4  C  1  X    0.000076  -0.000032   0.000012  -0.000017  -0.011072
    5  C  1  Y   -0.000094  -0.000002  -0.000172   0.000001   0.077337
    6  C  1  Z    0.000012  -0.000027  -0.000094  -0.000016   0.038521
    7  C  1  X   -0.000914  -0.000119   0.000019   0.000325   0.013475
    8  C  1  Y    0.002210  -0.000278  -0.000640   0.000057  -0.001952
    9  C  1  Z    0.000802  -0.000186  -0.000351   0.000181   0.003521
   10  C  1 XX   -0.000097  -0.000190   0.000176  -0.000007  -0.008012
   11  C  1 YY    0.000067   0.000040   0.000223   0.000020   0.009490
   12  C  1 ZZ    0.000030   0.000150  -0.000400  -0.000013  -0.001478
   13  C  1 XY    0.000073   0.000005  -0.000236  -0.000006  -0.002428
   14  C  1 XZ    0.000020  -0.000244   0.000344  -0.000051  -0.004430
   15  C  1 YZ    0.000062  -0.000208   0.000602  -0.000032   0.006863
   16  C  2  S    0.698260   0.713838  -0.084448   0.005556  -0.019679
   17  C  2  S    0.003225   0.002991  -0.000773  -0.000121   0.248960
   18  C  2  S   -0.007186  -0.005957   0.001936   0.000597   0.179366
   19  C  2  X   -0.000022  -0.000013  -0.000059  -0.000023  -0.039558
   20  C  2  Y    0.000190   0.000114   0.000095   0.000024  -0.024098
   21  C  2  Z    0.000041   0.000080   0.000033  -0.000005  -0.034947
   22  C  2  X    0.000559   0.001408   0.000337  -0.000832  -0.028909
   23  C  2  Y    0.001867  -0.001413  -0.001397   0.000413  -0.026114
   24  C  2  Z    0.001098  -0.000231  -0.000649  -0.000061  -0.019798
   25  C  2 XX   -0.000192   0.000191  -0.000234   0.000025  -0.001040
   26  C  2 YY    0.000147   0.000177   0.000015   0.000099   0.009841
   27  C  2 ZZ    0.000044  -0.000369   0.000219  -0.000124  -0.008801
   28  C  2 XY    0.000211  -0.000282   0.000089  -0.000179  -0.012540
   29  C  2 XZ    0.000311   0.000160  -0.000272  -0.000004  -0.001327
   30  C  2 YZ    0.000344   0.000393  -0.000247  -0.000060   0.008645
   31  C  3  S    0.714319  -0.697854   0.000287  -0.083919  -0.019691
   32  C  3  S    0.003292  -0.002917  -0.000170  -0.000760   0.249065
   33  C  3  S   -0.007331   0.005795   0.000724   0.001883   0.179578
   34  C  3  X    0.000023  -0.000015   0.000027   0.000056   0.039661
   35  C  3  Y   -0.000192   0.000109  -0.000030  -0.000093   0.024229
   36  C  3  Z    0.000044  -0.000080  -0.000002   0.000033  -0.035306
   37  C  3  X   -0.000599   0.001391   0.000807  -0.000392   0.028960
   38  C  3  Y   -0.001835  -0.001450  -0.000318   0.001417   0.026114
   39  C  3  Z    0.001103   0.000257  -0.000108  -0.000646  -0.020126
   40  C  3 XX   -0.000190  -0.000196   0.000011  -0.000233  -0.001046
   41  C  3 YY    0.000148  -0.000168   0.000100   0.000012   0.009795
   42  C  3 ZZ    0.000042   0.000365  -0.000111   0.000221  -0.008749
   43  C  3 XY    0.000203   0.000286  -0.000173   0.000101  -0.012489
   44  C  3 XZ   -0.000317   0.000158   0.000021   0.000276   0.001291
   45  C  3 YZ   -0.000353   0.000387   0.000074   0.000243  -0.008695
   46  C  4  S    0.057001  -0.060188   0.031730   0.998107  -0.013956
   47  C  4  S   -0.000419  -0.000129   0.000133   0.004318   0.179865
   48  C  4  S    0.003688   0.000705  -0.000305  -0.008008   0.070936
   49  C  4  X   -0.000076  -0.000033   0.000016  -0.000011   0.011137
   50  C  4  Y    0.000094   0.000001   0.000009   0.000172  -0.077311
   51  C  4  Z    0.000012   0.000027  -0.000022  -0.000093   0.038836
   52  C  4  X    0.000915  -0.000093  -0.000326  -0.000002  -0.013452
   53  C  4  Y   -0.002208  -0.000329  -0.000010   0.000639   0.002068
   54  C  4  Z    0.000806   0.000204   0.000158  -0.000363   0.003575
   55  C  4 XX   -0.000101   0.000187   0.000004   0.000172  -0.007999
   56  C  4 YY    0.000066  -0.000039   0.000034   0.000221   0.009455
   57  C  4 ZZ    0.000035  -0.000148  -0.000038  -0.000393  -0.001456
   58  C  4 XY    0.000074  -0.000009  -0.000021  -0.000244  -0.002364
   59  C  4 XZ   -0.000014  -0.000246   0.000030  -0.000349   0.004448
   60  C  4 YZ   -0.000058  -0.000208  -0.000006  -0.000601  -0.006944
   61  H  5  S    0.000112   0.000101  -0.000419  -0.000021   0.056263
   62  H  5  S    0.000747   0.000021   0.001167  -0.000091  -0.003849
   63  H  5  X   -0.000073  -0.000018   0.000531  -0.000021  -0.007538
   64  H  5  Y    0.000022   0.000125  -0.000280   0.000022   0.007318
   65  H  5  Z   -0.000006   0.000056   0.000059   0.000007   0.001152
   66  H  6  S   -0.000293   0.000268  -0.000394   0.000087   0.066626
   67  H  6  S    0.000217  -0.000101   0.001173   0.000167   0.006653
   68  H  6  X    0.000039   0.000052  -0.000490   0.000041   0.008233
   69  H  6  Y    0.000003   0.000140  -0.000140   0.000006   0.005529
   70  H  6  Z    0.000022   0.000103  -0.000292   0.000014   0.006602
   71  H  7  S   -0.000389  -0.000170   0.000265   0.000061   0.088164
   72  H  7  S    0.000589   0.000611   0.000157   0.000228   0.011491
   73  H  7  X    0.000319   0.000292  -0.000189  -0.000005  -0.011150
   74  H  7  Y    0.000043   0.000180  -0.000130  -0.000051  -0.004357
   75  H  7  Z    0.000125   0.000239  -0.000150  -0.000021  -0.007531
   76  H  8  S   -0.000395   0.000164   0.000078   0.000262   0.088066
   77  H  8  S    0.000600  -0.000599   0.000237   0.000143   0.011532
   78  H  8  X   -0.000325   0.000284   0.000017   0.000189   0.011108
   79  H  8  Y   -0.000045   0.000178   0.000058   0.000125   0.004284
   80  H  8  Z    0.000133  -0.000240  -0.000031  -0.000150  -0.007608
   81  H  9  S    0.000115  -0.000099  -0.000048  -0.000421   0.056290
   82  H  9  S    0.000749   0.000000  -0.000018   0.001169  -0.003866
   83  H  9  X    0.000073  -0.000017  -0.000013  -0.000532   0.007515
   84  H  9  Y   -0.000025   0.000125  -0.000004   0.000284  -0.007361
   85  H  9  Z   -0.000005  -0.000056   0.000011   0.000061   0.001145
   86  H 10  S   -0.000286  -0.000275   0.000062  -0.000397   0.066931
   87  H 10  S    0.000215   0.000107   0.000241   0.001163   0.006678
   88  H 10  X   -0.000041   0.000051  -0.000010   0.000489  -0.008265
   89  H 10  Y   -0.000007   0.000139   0.000003   0.000137  -0.005462
   90  H 10  Z    0.000025  -0.000103  -0.000004  -0.000294   0.006674

                      6          7          8          9         10
                   -1.0055    -0.8208    -0.7407    -0.6412    -0.6279
                     A          A          A          A          A   
    1  C  1  S   -0.019508  -0.014254  -0.005934   0.000411  -0.002401
    2  C  1  S    0.240385   0.199796   0.110228   0.005564   0.014520
    3  C  1  S    0.144000   0.156796   0.074475  -0.004890   0.030475
    4  C  1  X    0.001332   0.022868  -0.058451  -0.208072   0.165185
    5  C  1  Y    0.070436  -0.070968  -0.129393   0.014247  -0.215109
    6  C  1  Z    0.043201  -0.037140  -0.089294  -0.100587  -0.082824
    7  C  1  X    0.008012  -0.008326  -0.019667  -0.064469   0.054958
    8  C  1  Y    0.007768  -0.021167  -0.052382  -0.004603  -0.074509
    9  C  1  Z    0.009734  -0.017411  -0.034583  -0.039121  -0.033945
   10  C  1 XX   -0.007647   0.004292   0.008358   0.001223   0.011248
   11  C  1 YY    0.007670  -0.002452  -0.006993   0.000533  -0.006121
   12  C  1 ZZ   -0.000023  -0.001840  -0.001366  -0.001756  -0.005127
   13  C  1 XY    0.001277   0.001673  -0.004954   0.000054  -0.003222
   14  C  1 XZ   -0.000261   0.004054   0.001111   0.000185   0.003734
   15  C  1 YZ    0.009772  -0.000119  -0.005556  -0.002808  -0.008913
   16  C  2  S   -0.013988   0.006287   0.007341   0.002695   0.002005
   17  C  2  S    0.171485  -0.151514  -0.169513  -0.000748  -0.049994
   18  C  2  S    0.142438  -0.112180  -0.117286   0.005440  -0.046252
   19  C  2  X    0.039616   0.069988  -0.139252  -0.216476   0.112137
   20  C  2  Y   -0.125913  -0.146620  -0.026579   0.066077   0.181972
   21  C  2  Z   -0.046954  -0.071878  -0.049073  -0.096493   0.094297
   22  C  2  X   -0.009162   0.034290  -0.045842  -0.084967   0.065577
   23  C  2  Y   -0.023517  -0.047027  -0.025630   0.020151   0.048967
   24  C  2  Z   -0.020440  -0.019305  -0.023212  -0.045944   0.028852
   25  C  2 XX   -0.009688  -0.015087   0.003258  -0.000195   0.001968
   26  C  2 YY    0.008772   0.007795   0.000074   0.001423  -0.000324
   27  C  2 ZZ    0.000915   0.007291  -0.003332  -0.001228  -0.001644
   28  C  2 XY    0.005153   0.009974  -0.005978  -0.004352  -0.008897
   29  C  2 XZ   -0.001322  -0.000503  -0.004716   0.003228   0.003033
   30  C  2 YZ    0.012145   0.003581   0.000126  -0.000695  -0.005781
   31  C  3  S    0.013972   0.006296  -0.007347   0.002705  -0.002025
   32  C  3  S   -0.171244  -0.151592   0.169602  -0.000180   0.049675
   33  C  3  S   -0.142262  -0.112236   0.117455   0.005732   0.045891
   34  C  3  X    0.039381  -0.070007  -0.139470   0.216668   0.109874
   35  C  3  Y   -0.125616   0.146458  -0.025749  -0.065329   0.181882
   36  C  3  Z    0.047171  -0.072190   0.049959  -0.098192  -0.094704
   37  C  3  X   -0.009193  -0.034217  -0.045958   0.085051   0.064567
   38  C  3  Y   -0.023352   0.046979  -0.025286  -0.019914   0.048856
   39  C  3  Z    0.020576  -0.019307   0.023579  -0.046557  -0.028942
   40  C  3 XX    0.009667  -0.015083  -0.003340  -0.000203  -0.001882
   41  C  3 YY   -0.008688   0.007771  -0.000062   0.001396   0.000232
   42  C  3 ZZ   -0.000980   0.007313   0.003401  -0.001194   0.001650
   43  C  3 XY   -0.005183   0.010020   0.005920  -0.004276   0.008994
   44  C  3 XZ   -0.001316   0.000569  -0.004689  -0.003202   0.003029
   45  C  3 YZ    0.012198  -0.003656   0.000093   0.000637  -0.005820
   46  C  4  S    0.019503  -0.014293   0.005921   0.000448   0.002393
   47  C  4  S   -0.240032   0.200078  -0.109806   0.005108  -0.014663
   48  C  4  S   -0.143763   0.157069  -0.074094  -0.005712  -0.030524
   49  C  4  X    0.001239  -0.022668  -0.058935   0.208923   0.162637
   50  C  4  Y    0.070115   0.071127  -0.128749  -0.017816  -0.215263
   51  C  4  Z   -0.043386  -0.037424   0.090141  -0.100543   0.083708
   52  C  4  X    0.008047   0.008252  -0.019767   0.064728   0.054223
   53  C  4  Y    0.007676   0.021085  -0.052117   0.003509  -0.074593
   54  C  4  Z   -0.009814  -0.017516   0.034850  -0.039149   0.034296
   55  C  4 XX    0.007621   0.004271  -0.008342   0.001169  -0.011140
   56  C  4 YY   -0.007580  -0.002463   0.006936   0.000571   0.005984
   57  C  4 ZZ   -0.000042  -0.001807   0.001405  -0.001739   0.005157
   58  C  4 XY   -0.001303   0.001636   0.004990   0.000086   0.003300
   59  C  4 XZ   -0.000258  -0.004097   0.001136  -0.000163   0.003753
   60  C  4 YZ    0.009797   0.000145  -0.005618   0.002732  -0.008966
   61  H  5  S    0.098937   0.156142   0.087441  -0.141317   0.220249
   62  H  5  S    0.004765   0.032007   0.021488  -0.047108   0.072891
   63  H  5  X   -0.012917  -0.016153  -0.009428   0.007185  -0.013490
   64  H  5  Y    0.009946   0.008902   0.002897  -0.007394   0.006490
   65  H  5  Z    0.000334  -0.001673  -0.001965  -0.002001  -0.002643
   66  H  6  S    0.093090   0.132920   0.167947   0.168084   0.008894
   67  H  6  S    0.010377   0.019372   0.035300   0.048781   0.001079
   68  H  6  X    0.010498   0.013548   0.013997   0.008362   0.005405
   69  H  6  Y    0.006432   0.004518   0.003575   0.006591  -0.005111
   70  H  6  Z    0.008373   0.008162   0.008586   0.006622  -0.001815
   71  H  7  S    0.065890  -0.106799  -0.205918  -0.159110   0.124953
   72  H  7  S    0.011459  -0.020015  -0.042810  -0.043293   0.032653
   73  H  7  X   -0.006688   0.011419   0.015325   0.009252  -0.007900
   74  H  7  Y   -0.005921   0.001231   0.007575   0.006630   0.001060
   75  H  7  Z   -0.005639   0.004827   0.011285   0.006537  -0.004255
   76  H  8  S   -0.065758  -0.106927   0.206141  -0.160043  -0.123496
   77  H  8  S   -0.011460  -0.020054   0.042853  -0.043525  -0.032281
   78  H  8  X   -0.006649  -0.011407   0.015292  -0.009288  -0.007801
   79  H  8  Y   -0.005879  -0.001188   0.007500  -0.006572   0.001173
   80  H  8  Z    0.005692   0.004911  -0.011437   0.006655   0.004249
   81  H  9  S   -0.098701   0.156424  -0.087122  -0.143451  -0.218969
   82  H  9  S   -0.004730   0.032035  -0.021395  -0.047839  -0.072419
   83  H  9  X   -0.012840   0.016125  -0.009382  -0.007291  -0.013373
   84  H  9  Y    0.010000  -0.009031   0.002944   0.007500   0.006527
   85  H  9  Z   -0.000310  -0.001717   0.001999  -0.001962   0.002697
   86  H 10  S   -0.093162   0.133235  -0.167920   0.167688  -0.010218
   87  H 10  S   -0.010411   0.019454  -0.035318   0.048581  -0.001521
   88  H 10  X    0.010503  -0.013566   0.013965  -0.008296   0.005447
   89  H 10  Y    0.006339  -0.004428   0.003452  -0.006553  -0.005081
   90  H 10  Z   -0.008438   0.008252  -0.008634   0.006674   0.001759

                     11         12         13         14         15
                   -0.5873    -0.5406    -0.4759    -0.3923    -0.3570
                     A          A          A          A          A   
    1  C  1  S    0.001046   0.001478  -0.000321  -0.002518   0.001633
    2  C  1  S    0.019622   0.018133   0.009605   0.025125  -0.023042
    3  C  1  S    0.005674  -0.006017   0.020937   0.037875  -0.033078
    4  C  1  X    0.009857   0.227730  -0.194760  -0.095819  -0.085871
    5  C  1  Y    0.268352   0.052643   0.050559  -0.074255  -0.175168
    6  C  1  Z    0.122509   0.144725  -0.021103   0.234213   0.213822
    7  C  1  X   -0.000533   0.087698  -0.092644  -0.073722  -0.068499
    8  C  1  Y    0.104649   0.012221   0.029360  -0.073715  -0.116718
    9  C  1  Z    0.040555   0.054126  -0.001065   0.162865   0.173534
   10  C  1 XX   -0.012733  -0.002545  -0.004474  -0.000618   0.001688
   11  C  1 YY    0.014253   0.005740  -0.006551  -0.014210  -0.017467
   12  C  1 ZZ   -0.001519  -0.003195   0.011025   0.014827   0.015779
   13  C  1 XY    0.001239  -0.018554   0.026331  -0.010139  -0.004764
   14  C  1 XZ   -0.005818  -0.012339   0.013136  -0.008282  -0.002476
   15  C  1 YZ    0.004931  -0.002309   0.010518   0.010720   0.010831
   16  C  2  S    0.000580   0.002682  -0.001696   0.000852  -0.000679
   17  C  2  S    0.014642  -0.033462  -0.036768   0.003737   0.001117
   18  C  2  S   -0.026261  -0.062925  -0.070632  -0.001380   0.002990
   19  C  2  X    0.041230  -0.073849   0.252132  -0.141507  -0.064100
   20  C  2  Y   -0.235958  -0.128468  -0.119803  -0.162181  -0.086008
   21  C  2  Z   -0.189081  -0.068429   0.082806   0.179831   0.243324
   22  C  2  X    0.024039  -0.013198   0.112120  -0.098341  -0.045688
   23  C  2  Y   -0.070421  -0.064427  -0.045589  -0.114542  -0.078099
   24  C  2  Z   -0.066225  -0.025286   0.046100   0.135916   0.192843
   25  C  2 XX   -0.017361   0.002528  -0.003282  -0.013109   0.007344
   26  C  2 YY    0.012318   0.004177  -0.005812   0.029723   0.007866
   27  C  2 ZZ    0.005043  -0.006705   0.009095  -0.016614  -0.015210
   28  C  2 XY   -0.000086  -0.016917   0.030628  -0.000836   0.011137
   29  C  2 XZ   -0.000236  -0.015118   0.008851  -0.007528   0.016768
   30  C  2 YZ    0.002075  -0.003094   0.006880  -0.003634  -0.020220
   31  C  3  S    0.000581  -0.002710  -0.001685   0.000858   0.000670
   32  C  3  S    0.014721   0.033249  -0.036850   0.003750  -0.001037
   33  C  3  S   -0.026278   0.063079  -0.070585  -0.001532  -0.002750
   34  C  3  X   -0.041809  -0.074262  -0.251303   0.142620  -0.065858
   35  C  3  Y    0.235293  -0.128190   0.120814   0.162535  -0.087104
   36  C  3  Z   -0.189974   0.069314   0.083724   0.178287  -0.242542
   37  C  3  X   -0.024385  -0.013388  -0.111768   0.099090  -0.047063
   38  C  3  Y    0.070278  -0.064322   0.046350   0.114810  -0.078941
   39  C  3  Z   -0.066470   0.025479   0.046437   0.134865  -0.192229
   40  C  3 XX   -0.017379  -0.002574  -0.003235  -0.013031  -0.007227
   41  C  3 YY    0.012312  -0.004328  -0.005978   0.029699  -0.008000
   42  C  3 ZZ    0.005067   0.006903   0.009213  -0.016668   0.015227
   43  C  3 XY   -0.000017   0.016850   0.030507  -0.000621  -0.011213
   44  C  3 XZ    0.000352  -0.015177  -0.008911   0.007553   0.016883
   45  C  3 YZ   -0.002138  -0.003109  -0.006942   0.003413  -0.020088
   46  C  4  S    0.001048  -0.001465  -0.000312  -0.002518  -0.001643
   47  C  4  S    0.019712  -0.018146   0.009624   0.025103   0.023065
   48  C  4  S    0.005784   0.005634   0.020517   0.037912   0.033329
   49  C  4  X   -0.010409   0.227639   0.194029   0.097586  -0.087654
   50  C  4  Y   -0.268005   0.051071  -0.051372   0.074480  -0.175442
   51  C  4  Z    0.123475  -0.146434  -0.021668   0.233183  -0.213067
   52  C  4  X    0.000295   0.087534   0.092334   0.075061  -0.069803
   53  C  4  Y   -0.104533   0.011784  -0.029552   0.073850  -0.117104
   54  C  4  Z    0.040873  -0.054835  -0.001358   0.162013  -0.172962
   55  C  4 XX   -0.012697   0.002633  -0.004347  -0.000619  -0.001683
   56  C  4 YY    0.014218  -0.005939  -0.006858  -0.014208   0.017512
   57  C  4 ZZ   -0.001521   0.003306   0.011206   0.014827  -0.015829
   58  C  4 XY    0.001394   0.018500   0.026209  -0.010161   0.004900
   59  C  4 XZ    0.005843  -0.012451  -0.013178   0.008362  -0.002566
   60  C  4 YZ   -0.005042  -0.002265  -0.010471  -0.010590   0.010663
   61  H  5  S   -0.108669   0.164170  -0.191845  -0.012937   0.016726
   62  H  5  S   -0.038259   0.071735  -0.101106  -0.007304   0.013539
   63  H  5  X    0.008937  -0.004635   0.004985  -0.001535  -0.004673
   64  H  5  Y    0.001416   0.009985  -0.007650  -0.003268  -0.005543
   65  H  5  Z    0.003488   0.004403  -0.001430   0.008337   0.007456
   66  H  6  S   -0.134861  -0.238404   0.161419  -0.012829   0.002933
   67  H  6  S   -0.052815  -0.106225   0.091579  -0.025516   0.018395
   68  H  6  X   -0.009095  -0.008901   0.001973  -0.002211  -0.004077
   69  H  6  Y    0.003024  -0.006415   0.006536  -0.003874  -0.005001
   70  H  6  Z   -0.003751  -0.006938   0.005974   0.007675   0.007314
   71  H  7  S   -0.116408  -0.157969   0.185185  -0.084213   0.060636
   72  H  7  S   -0.049514  -0.072710   0.099776  -0.046208   0.030564
   73  H  7  X    0.008961   0.007120  -0.004346  -0.001042  -0.004473
   74  H  7  Y   -0.002657   0.002423  -0.008808  -0.003924  -0.004227
   75  H  7  Z    0.000029   0.005504  -0.005353   0.008579   0.006784
   76  H  8  S   -0.116385   0.158270   0.184998  -0.083880  -0.060414
   77  H  8  S   -0.049508   0.072892   0.099675  -0.046121  -0.030402
   78  H  8  X   -0.008952   0.007087   0.004332   0.001118  -0.004518
   79  H  8  Y    0.002676   0.002386   0.008766   0.003977  -0.004240
   80  H  8  Z    0.000067  -0.005570  -0.005409   0.008532  -0.006753
   81  H  9  S   -0.108967  -0.164298  -0.191355  -0.013309  -0.016848
   82  H  9  S   -0.038349  -0.071886  -0.100887  -0.007524  -0.013504
   83  H  9  X   -0.008950  -0.004586  -0.004912   0.001580  -0.004747
   84  H  9  Y   -0.001341   0.010007   0.007656   0.003300  -0.005533
   85  H  9  Z    0.003534  -0.004437  -0.001435   0.008313  -0.007423
   86  H 10  S   -0.134578   0.238932   0.161250  -0.012406  -0.002750
   87  H 10  S   -0.052741   0.106417   0.091465  -0.025421  -0.018264
   88  H 10  X    0.009052  -0.008932  -0.001988   0.002243  -0.004148
   89  H 10  Y   -0.003117  -0.006360  -0.006499   0.003877  -0.005009
   90  H 10  Z   -0.003753   0.007008   0.006011   0.007664  -0.007282

                     16         17         18         19         20
                    0.1472     0.1840     0.2160     0.2248     0.2414
                     A          A          A          A          A   
    1  C  1  S    0.008663   0.019835  -0.030218   0.020287   0.043178
    2  C  1  S   -0.040919  -0.043342   0.033598  -0.046904  -0.022391
    3  C  1  S   -0.270300  -0.537436   0.986653  -0.561771  -1.169766
    4  C  1  X   -0.077998   0.037099   0.024609   0.131550  -0.115354
    5  C  1  Y   -0.112075   0.110583  -0.132397   0.052837   0.065674
    6  C  1  Z    0.188633  -0.152512   0.019989   0.011654   0.125096
    7  C  1  X   -0.185263   0.044087   0.005166   0.411850  -0.380919
    8  C  1  Y   -0.115373   0.396317  -0.459516   0.277859   0.199850
    9  C  1  Z    0.464487  -0.267819   0.014324   0.194450   0.375144
   10  C  1 XX    0.000366   0.000300   0.010577  -0.007531  -0.010229
   11  C  1 YY    0.012314  -0.011092   0.003050   0.003107   0.010104
   12  C  1 ZZ   -0.012680   0.010792  -0.013627   0.004424   0.000125
   13  C  1 XY   -0.000755  -0.007508  -0.002113  -0.000286   0.016850
   14  C  1 XZ    0.000064  -0.004698   0.010961  -0.008006  -0.005459
   15  C  1 YZ   -0.009356   0.007959   0.006252  -0.000978  -0.012855
   16  C  2  S    0.010972   0.015583  -0.021386  -0.017257   0.003231
   17  C  2  S   -0.002458  -0.010138   0.029774   0.035701   0.004541
   18  C  2  S   -0.267412  -0.447685   0.741592   0.468869  -0.121436
   19  C  2  X    0.047656  -0.113494   0.114136   0.100128   0.022746
   20  C  2  Y    0.102094  -0.126621   0.092921   0.004363   0.045313
   21  C  2  Z   -0.198339   0.139009  -0.015121   0.071970  -0.177323
   22  C  2  X    0.080224  -0.292286   0.491751   0.304683   0.024141
   23  C  2  Y    0.206491  -0.262317   0.374434   0.129272   0.111162
   24  C  2  Z   -0.384197   0.247415   0.043208   0.417897  -0.466994
   25  C  2 XX    0.011891   0.015693   0.013270   0.012267  -0.004474
   26  C  2 YY    0.002791  -0.024631  -0.002804  -0.009773   0.011179
   27  C  2 ZZ   -0.014682   0.008938  -0.010466  -0.002495  -0.006706
   28  C  2 XY    0.010299   0.001149   0.003456  -0.005327  -0.003485
   29  C  2 XZ    0.015662   0.009564   0.016257   0.005311  -0.007227
   30  C  2 YZ   -0.020455  -0.002209   0.001890   0.001751   0.005310
   31  C  3  S    0.010943  -0.015516  -0.021233   0.017339  -0.003528
   32  C  3  S   -0.002089   0.010066   0.030257  -0.035758  -0.003727
   33  C  3  S   -0.266450   0.444019   0.739514  -0.474905   0.132106
   34  C  3  X   -0.049077  -0.114269  -0.114053   0.099965   0.022616
   35  C  3  Y   -0.103244  -0.126114  -0.093546   0.004385   0.045950
   36  C  3  Z   -0.197934  -0.137247  -0.014916  -0.072647   0.178055
   37  C  3  X   -0.084445  -0.292637  -0.494363   0.305127   0.020263
   38  C  3  Y   -0.208819  -0.263009  -0.372853   0.126277   0.107903
   39  C  3  Z   -0.383054  -0.243295   0.046273  -0.420590   0.469544
   40  C  3 XX    0.011763  -0.015694   0.013002  -0.012213   0.004506
   41  C  3 YY    0.002904   0.024604  -0.002798   0.009788  -0.011116
   42  C  3 ZZ   -0.014667  -0.008910  -0.010204   0.002425   0.006610
   43  C  3 XY    0.010372  -0.001070   0.003502   0.005387   0.003349
   44  C  3 XZ   -0.015811   0.009731  -0.016339   0.005420  -0.007322
   45  C  3 YZ    0.020340  -0.002344  -0.001872   0.001736   0.005414
   46  C  4  S    0.008655  -0.019798  -0.030379  -0.020106  -0.042591
   47  C  4  S   -0.041085   0.043194   0.033705   0.046582   0.021634
   48  C  4  S   -0.270097   0.537320   0.991840   0.557569   1.155670
   49  C  4  X    0.079399   0.038065  -0.022790   0.131646  -0.117315
   50  C  4  Y    0.112529   0.110280   0.133366   0.051473   0.065120
   51  C  4  Z    0.188125   0.151498   0.019981  -0.012153  -0.123107
   52  C  4  X    0.188351   0.046103   0.001488   0.411287  -0.388342
   53  C  4  Y    0.116512   0.394329   0.462016   0.271260   0.197035
   54  C  4  Z    0.463835   0.266267   0.011916  -0.194850  -0.367868
   55  C  4 XX    0.000377  -0.000348   0.010505   0.007426   0.009895
   56  C  4 YY    0.012404   0.011074   0.003118  -0.003094  -0.010002
   57  C  4 ZZ   -0.012781  -0.010726  -0.013623  -0.004332   0.000107
   58  C  4 XY   -0.000692   0.007580  -0.002287   0.000180  -0.017131
   59  C  4 XZ   -0.000063  -0.004707  -0.011104  -0.008069  -0.005315
   60  C  4 YZ    0.009255   0.007793  -0.006208  -0.000985  -0.012626
   61  H  5  S    0.027283   0.029738  -0.006653  -0.001756  -0.011161
   62  H  5  S    0.260019   0.549644  -0.865116  -0.076752   1.181935
   63  H  5  X   -0.005961  -0.001650   0.010134  -0.000125  -0.017051
   64  H  5  Y   -0.005843   0.007677  -0.010066  -0.001117   0.009588
   65  H  5  Z    0.008534  -0.009279   0.002283  -0.005341   0.006122
   66  H  6  S   -0.017380  -0.004353   0.010805   0.014899   0.021855
   67  H  6  S    0.163343   0.206284  -0.507998   1.164959   0.444938
   68  H  6  X   -0.004345   0.003409  -0.008497   0.013903   0.005204
   69  H  6  Y   -0.003053   0.007767  -0.004832   0.006556  -0.003757
   70  H  6  Z    0.010852  -0.007858  -0.002307   0.006103   0.009297
   71  H  7  S    0.044869   0.065686   0.042325  -0.018143  -0.029796
   72  H  7  S    0.291454   0.575246  -0.907222  -1.073660   0.242025
   73  H  7  X    0.004334  -0.004625   0.014256   0.015623   0.001623
   74  H  7  Y    0.003773  -0.011886   0.004148  -0.000939  -0.000088
   75  H  7  Z   -0.012004   0.005921   0.004643   0.008636  -0.008891
   76  H  8  S    0.044495  -0.066173   0.042247   0.017959   0.029330
   77  H  8  S    0.288816  -0.573469  -0.907606   1.077618  -0.260930
   78  H  8  X   -0.004442  -0.004619  -0.014208   0.015625   0.001449
   79  H  8  Y   -0.003840  -0.011843  -0.004219  -0.000919  -0.000020
   80  H  8  Z   -0.011951  -0.005854   0.004670  -0.008742   0.009014
   81  H  9  S    0.027554  -0.029736  -0.006322   0.001876   0.011077
   82  H  9  S    0.260262  -0.548788  -0.864338   0.080754  -1.181479
   83  H  9  X    0.006023  -0.001555  -0.010073  -0.000042  -0.017016
   84  H  9  Y    0.005874   0.007709   0.010204  -0.001099   0.009691
   85  H  9  Z    0.008501   0.009220   0.002346   0.005323  -0.006101
   86  H 10  S   -0.017374   0.004434   0.010539  -0.014755  -0.021457
   87  H 10  S    0.163022  -0.203017  -0.516381  -1.159250  -0.421424
   88  H 10  X    0.004431   0.003399   0.008633   0.013831   0.004935
   89  H 10  Y    0.003089   0.007757   0.004815   0.006447  -0.003935
   90  H 10  Z    0.010823   0.007795  -0.002362  -0.006195  -0.009106

                     21         22         23         24         25
                    0.2457     0.2786     0.2804     0.4301     0.4496
                     A          A          A          A          A   
    1  C  1  S    0.028815  -0.004651   0.016178  -0.038235  -0.084588
    2  C  1  S   -0.051607  -0.028050  -0.006281  -0.019348  -0.093270
    3  C  1  S   -0.819125   0.046632  -0.436644   1.083278   3.139543
    4  C  1  X    0.088307  -0.111128  -0.175407  -0.000791   0.009296
    5  C  1  Y    0.038330  -0.002547   0.039070  -0.015702  -0.013201
    6  C  1  Z    0.085531  -0.095404  -0.046035  -0.023239  -0.002989
    7  C  1  X    0.342398  -0.933071  -1.167271  -0.961646  -0.371769
    8  C  1  Y    0.252685   0.083266   0.132466   1.122712   2.229703
    9  C  1  Z    0.297827  -0.482976  -0.400655   0.236510   1.234481
   10  C  1 XX   -0.010571  -0.004660  -0.004123   0.013979   0.010589
   11  C  1 YY    0.001929   0.000402  -0.004182  -0.000178   0.005835
   12  C  1 ZZ    0.008643   0.004258   0.008305  -0.013802  -0.016424
   13  C  1 XY    0.000369  -0.003556   0.017698   0.020168  -0.018963
   14  C  1 XZ   -0.008782  -0.006495   0.008441   0.036367  -0.002190
   15  C  1 YZ   -0.001910   0.003032   0.003157   0.020835   0.038404
   16  C  2  S   -0.017463  -0.016726  -0.016379   0.083676   0.016272
   17  C  2  S    0.044144   0.086529   0.024746  -0.030928  -0.080791
   18  C  2  S    0.568014   0.577250   0.886783  -3.584168  -3.063306
   19  C  2  X    0.071189  -0.033676   0.064750   0.187275   0.034025
   20  C  2  Y   -0.011497   0.069463  -0.002909   0.025953   0.069152
   21  C  2  Z    0.070497   0.090336   0.030372   0.028452   0.135768
   22  C  2  X    0.350852   0.711084   0.716005   2.153907   0.445617
   23  C  2  Y    0.219240  -0.036897   0.035900  -0.627133   2.432463
   24  C  2  Z    0.216149   0.506702   0.267251   0.730329   1.040405
   25  C  2 XX    0.004938   0.000303   0.005695   0.001299   0.008564
   26  C  2 YY    0.000970  -0.014893  -0.001658  -0.021018  -0.023083
   27  C  2 ZZ   -0.005908   0.014590  -0.004038   0.019718   0.014519
   28  C  2 XY   -0.004502   0.031986   0.009571   0.016522   0.015622
   29  C  2 XZ    0.003162   0.008527   0.021626  -0.011438  -0.014376
   30  C  2 YZ   -0.000601   0.000418   0.011324  -0.021900  -0.051042
   31  C  3  S   -0.017492   0.017540  -0.014968  -0.083821   0.016689
   32  C  3  S    0.044936  -0.088044   0.018549   0.030668  -0.080096
   33  C  3  S    0.569338  -0.631026   0.836155   3.584855  -3.075402
   34  C  3  X   -0.071207  -0.029982  -0.066976   0.186807  -0.033011
   35  C  3  Y    0.010728   0.068538   0.008260   0.025686  -0.068101
   36  C  3  Z    0.068499  -0.091890   0.023770  -0.029348   0.136663
   37  C  3  X   -0.357651   0.755052  -0.661056   2.151704  -0.446028
   38  C  3  Y   -0.218919  -0.039216  -0.037380  -0.632633  -2.433766
   39  C  3  Z    0.215739  -0.528670   0.234498  -0.738852   1.057168
   40  C  3 XX    0.004846  -0.000543   0.005439  -0.001288   0.008783
   41  C  3 YY    0.001009   0.015084  -0.000672   0.020776  -0.022896
   42  C  3 ZZ   -0.005854  -0.014541  -0.004766  -0.019488   0.014113
   43  C  3 XY   -0.004372  -0.032466   0.007086  -0.016456   0.015591
   44  C  3 XZ   -0.003219   0.010114  -0.021035  -0.011604   0.014487
   45  C  3 YZ    0.000477   0.001256  -0.011185  -0.021971   0.051244
   46  C  4  S    0.029722   0.003638   0.016279   0.038296  -0.084467
   47  C  4  S   -0.052053   0.028068  -0.004397   0.019593  -0.092867
   48  C  4  S   -0.842150  -0.022807  -0.432280  -1.087337   3.148085
   49  C  4  X   -0.085306  -0.123967   0.166294  -0.000684  -0.009124
   50  C  4  Y   -0.039002   0.001775  -0.039711  -0.015899   0.012437
   51  C  4  Z    0.087438   0.100051  -0.039255   0.024038  -0.002565
   52  C  4  X   -0.328658  -1.016925   1.092702  -0.958204   0.367012
   53  C  4  Y   -0.254778   0.101221  -0.134598   1.125394  -2.233047
   54  C  4  Z    0.303167   0.517484  -0.367063  -0.237519   1.244335
   55  C  4 XX   -0.010763   0.004764  -0.003564  -0.014111   0.010427
   56  C  4 YY    0.002111  -0.000014  -0.004348   0.000628   0.005729
   57  C  4 ZZ    0.008652  -0.004750   0.007912   0.013483  -0.016157
   58  C  4 XY    0.000807   0.002227   0.017831  -0.019725  -0.019366
   59  C  4 XZ    0.009015  -0.005850  -0.008972   0.036560   0.001905
   60  C  4 YZ    0.002080   0.003286  -0.002985   0.020755  -0.038578
   61  H  5  S   -0.012378   0.036512  -0.011598  -0.010612   0.129982
   62  H  5  S    0.121182   1.071536   1.600002   0.663802   0.526894
   63  H  5  X   -0.004110  -0.007142  -0.016057   0.006758   0.012681
   64  H  5  Y   -0.001483   0.003629   0.015264   0.019239  -0.007979
   65  H  5  Z   -0.000647  -0.003650   0.002133   0.015465  -0.005312
   66  H  6  S    0.025824  -0.043725   0.024811   0.160342   0.025490
   67  H  6  S    1.292634  -1.145182  -1.112955  -0.628640   0.207543
   68  H  6  X    0.014940  -0.005043  -0.006551  -0.019050  -0.014636
   69  H  6  Y    0.003048  -0.005082  -0.010286  -0.004703   0.002800
   70  H  6  Z    0.008685  -0.007692  -0.009402  -0.011751   0.000314
   71  H  7  S   -0.043180   0.003625   0.032284   0.016480  -0.035518
   72  H  7  S   -1.030656  -1.219079  -1.008518  -0.856209  -0.881589
   73  H  7  X    0.011386   0.004841   0.014112  -0.000097  -0.003228
   74  H  7  Y    0.000134   0.014992   0.006491  -0.003939  -0.011088
   75  H  7  Z    0.005668   0.012779   0.010877  -0.005593  -0.007809
   76  H  8  S   -0.043576  -0.006311   0.031958  -0.016613  -0.035822
   77  H  8  S   -1.036710   1.279767  -0.916081   0.856353  -0.881772
   78  H  8  X   -0.011453   0.005638  -0.013673  -0.000114   0.003335
   79  H  8  Y   -0.000141   0.015349  -0.005285  -0.003923   0.011171
   80  H  8  Z    0.005722  -0.013620   0.009954   0.005690  -0.007818
   81  H  9  S   -0.012258  -0.035772  -0.014201   0.011152   0.129572
   82  H  9  S    0.151346  -1.187834   1.514370  -0.663683   0.529144
   83  H  9  X    0.004487  -0.008191   0.015382   0.006918  -0.012837
   84  H  9  Y    0.001208   0.004863  -0.014934   0.019202   0.008038
   85  H  9  Z   -0.000586   0.003526   0.002391  -0.015568  -0.005231
   86  H 10  S    0.025987   0.042035   0.027900  -0.160987   0.026579
   87  H 10  S    1.294804   1.234651  -1.026120   0.631760   0.208241
   88  H 10  X   -0.015010  -0.005645   0.006208  -0.019045   0.014646
   89  H 10  Y   -0.002873  -0.005769   0.009832  -0.004564  -0.002794
   90  H 10  Z    0.008866   0.008480  -0.008888   0.011845   0.000210

                     26         27         28         29         30
                    0.4788     0.6149     0.6240     0.6712     0.6897
                     A          A          A          A          A   
    1  C  1  S   -0.033464  -0.040568   0.054322   0.030297  -0.064691
    2  C  1  S    0.021358  -0.090832   0.168310   0.058314  -0.155170
    3  C  1  S    2.727802  -0.692612   0.812126   0.474215   0.020503
    4  C  1  X   -0.011381  -0.034148  -0.075252   0.165371  -0.103880
    5  C  1  Y    0.074745  -0.229711   0.130677   0.317471  -0.196527
    6  C  1  Z    0.062923  -0.057896   0.272930  -0.340699  -0.032590
    7  C  1  X    0.223246   0.168827   0.185246  -0.034807   0.746951
    8  C  1  Y    2.033219   0.239250   0.264090  -0.002386   0.426299
    9  C  1  Z    1.154546   0.084467  -0.163356   0.634627   0.403034
   10  C  1 XX    0.000634   0.005345  -0.038114   0.014619  -0.012506
   11  C  1 YY    0.035422  -0.032300  -0.029137   0.032182  -0.032927
   12  C  1 ZZ   -0.036056   0.026955   0.067251  -0.046801   0.045433
   13  C  1 XY   -0.051543   0.042586   0.071147   0.064976   0.025538
   14  C  1 XZ    0.011618   0.040060   0.049200   0.040648  -0.017816
   15  C  1 YZ    0.016423  -0.006854   0.042050   0.011016  -0.016297
   16  C  2  S    0.059130  -0.004639   0.014999   0.042604  -0.072183
   17  C  2  S    0.113319   0.024951  -0.023956   0.096848  -0.011942
   18  C  2  S   -1.540355   0.404041   0.223490  -0.576347   0.479716
   19  C  2  X   -0.081430  -0.171030   0.107931   0.118142  -0.220345
   20  C  2  Y    0.154874   0.241973  -0.294309   0.129313   0.247615
   21  C  2  Z   -0.014418   0.110676   0.121873  -0.296016   0.193347
   22  C  2  X   -1.377600   0.169288  -0.605435   0.000891  -0.600398
   23  C  2  Y    2.489218  -0.919420   1.160766   0.499313   0.223740
   24  C  2  Z    1.335739  -0.281857   0.680652   0.384028  -0.250603
   25  C  2 XX    0.012287   0.019576  -0.019124   0.014565  -0.107589
   26  C  2 YY   -0.021477   0.002403   0.079815  -0.062114   0.052977
   27  C  2 ZZ    0.009190  -0.021979  -0.060690   0.047549   0.054611
   28  C  2 XY    0.010500  -0.073250  -0.089965  -0.032827   0.037001
   29  C  2 XZ    0.018057  -0.021969   0.010952  -0.038363  -0.076232
   30  C  2 YZ    0.001322  -0.018319  -0.016493   0.030267  -0.103749
   31  C  3  S   -0.059153  -0.005406  -0.013939   0.042027   0.075332
   32  C  3  S   -0.113588   0.025641   0.024631   0.096382   0.018552
   33  C  3  S    1.527446   0.402796  -0.252924  -0.572702  -0.491123
   34  C  3  X   -0.080945   0.175256   0.101559  -0.118474  -0.215674
   35  C  3  Y    0.154524  -0.252952  -0.286634  -0.131906   0.247564
   36  C  3  Z    0.014926   0.107139  -0.125332  -0.293300  -0.196011
   37  C  3  X   -1.378292  -0.181648  -0.602523   0.004101  -0.605082
   38  C  3  Y    2.476672   0.951971   1.113767  -0.499772   0.220995
   39  C  3  Z   -1.336697  -0.307512  -0.667092   0.386148   0.256114
   40  C  3 XX   -0.012053   0.019813   0.018494   0.013793   0.108095
   41  C  3 YY    0.021397   0.000499  -0.080072  -0.061344  -0.054280
   42  C  3 ZZ   -0.009344  -0.020312   0.061577   0.047551  -0.053814
   43  C  3 XY   -0.010242  -0.069740   0.092019  -0.033066  -0.038934
   44  C  3 XZ    0.018038   0.022375   0.010351   0.039136  -0.079110
   45  C  3 YZ    0.001319   0.018081  -0.017075  -0.029032  -0.104368
   46  C  4  S    0.033005  -0.042699  -0.052458   0.029579   0.067333
   47  C  4  S   -0.022151  -0.096868  -0.164099   0.057085   0.159325
   48  C  4  S   -2.714982  -0.716064  -0.775732   0.476725  -0.023878
   49  C  4  X   -0.011175   0.033103  -0.076633  -0.167647  -0.105165
   50  C  4  Y    0.075032   0.234565   0.120050  -0.316680  -0.200491
   51  C  4  Z   -0.063656  -0.067846  -0.270594  -0.338078   0.030597
   52  C  4  X    0.225524  -0.166312   0.191229   0.031197   0.745199
   53  C  4  Y    2.020462  -0.230826   0.265107   0.002821   0.416173
   54  C  4  Z   -1.157721   0.093104   0.164186   0.635332  -0.397664
   55  C  4 XX   -0.000064   0.006681   0.038087   0.014441   0.014584
   56  C  4 YY   -0.035762  -0.031590   0.031037   0.031307   0.032713
   57  C  4 ZZ    0.035826   0.024909  -0.069124  -0.045748  -0.047297
   58  C  4 XY    0.051622   0.039635  -0.072546   0.065267  -0.027425
   59  C  4 XZ    0.011714  -0.038133   0.050592  -0.040952  -0.019670
   60  C  4 YZ    0.016358   0.008710   0.041343  -0.011133  -0.017645
   61  H  5  S    0.191367  -0.171248  -0.276067  -0.079484  -0.138543
   62  H  5  S    0.232390   0.117597   0.386802   0.101233  -0.192852
   63  H  5  X    0.015316  -0.010391  -0.028959   0.014466   0.004179
   64  H  5  Y   -0.027338   0.047972   0.020074   0.023209   0.021654
   65  H  5  Z   -0.001220   0.031654   0.009514  -0.006906   0.013291
   66  H  6  S   -0.034097   0.362786   0.124831   0.224684   0.228247
   67  H  6  S    0.751730  -0.089466  -0.126990   0.022814   0.478597
   68  H  6  X   -0.004439   0.003075  -0.012317  -0.023080   0.009120
   69  H  6  Y    0.015030  -0.019660  -0.034824  -0.019387  -0.003803
   70  H  6  Z    0.002529  -0.009772  -0.029416  -0.035433   0.001240
   71  H  7  S    0.079088  -0.194240  -0.233668  -0.191851  -0.441750
   72  H  7  S   -0.103013   0.256773  -0.021354  -0.068635   0.511670
   73  H  7  X   -0.000916  -0.009471  -0.024608  -0.018925  -0.074857
   74  H  7  Y    0.004417  -0.038654  -0.015914   0.008691  -0.023169
   75  H  7  Z    0.003141  -0.019808   0.002082  -0.021894  -0.036332
   76  H  8  S   -0.079114  -0.186462   0.239008  -0.195961   0.446443
   77  H  8  S    0.101653   0.258931   0.010387  -0.064485  -0.516206
   78  H  8  X   -0.000972   0.008729  -0.024842   0.019368  -0.076144
   79  H  8  Y    0.004632   0.037940  -0.017354  -0.008753  -0.022983
   80  H  8  Z   -0.003151  -0.020131  -0.001296  -0.022130   0.037660
   81  H  9  S   -0.190940  -0.162685   0.282828  -0.083026   0.147885
   82  H  9  S   -0.232471   0.104193  -0.390115   0.099588   0.187397
   83  H  9  X    0.015247   0.009431  -0.029724  -0.014426   0.002097
   84  H  9  Y   -0.027374  -0.047059   0.021906  -0.023381   0.022091
   85  H  9  Z    0.001128   0.031407  -0.010455  -0.006683  -0.013153
   86  H 10  S    0.033616   0.357284  -0.135035   0.224616  -0.217620
   87  H 10  S   -0.749475  -0.082660   0.131920   0.027328  -0.475834
   88  H 10  X   -0.004328  -0.003673  -0.011954   0.022759   0.010281
   89  H 10  Y    0.015065   0.018519  -0.035366   0.019338  -0.004221
   90  H 10  Z   -0.002530  -0.008762   0.029911  -0.035652  -0.001875

                     31         32         33         34         35
                    0.7067     0.7291     0.7706     0.7883     0.8057
                     A          A          A          A          A   
    1  C  1  S    0.131462  -0.046489   0.072420  -0.011122   0.052687
    2  C  1  S    0.218283  -0.005233   0.042696  -0.125340   0.135893
    3  C  1  S   -0.347396   0.724717  -0.298661  -0.639687   1.138784
    4  C  1  X   -0.064504   0.140985   0.151101  -0.036292   0.031054
    5  C  1  Y    0.159336   0.216961   0.197709  -0.230465  -0.020305
    6  C  1  Z    0.045848  -0.339861  -0.271221   0.208929   0.445028
    7  C  1  X    0.230972  -0.050175  -0.057981   0.079279  -0.229320
    8  C  1  Y    0.026734  -0.075288  -0.302762   0.204763   0.309973
    9  C  1  Z    0.173328   0.355443   0.271334  -0.510093  -0.278840
   10  C  1 XX    0.110606  -0.086970   0.052215   0.009326   0.015297
   11  C  1 YY   -0.034942   0.030808   0.017956   0.044877  -0.002986
   12  C  1 ZZ   -0.075665   0.056162  -0.070172  -0.054203  -0.012311
   13  C  1 XY   -0.089933   0.050738  -0.003839   0.004965   0.117645
   14  C  1 XZ    0.059072  -0.032087   0.121721   0.106328   0.016630
   15  C  1 YZ    0.061332  -0.085657   0.092431   0.036468   0.073689
   16  C  2  S    0.140860  -0.054358   0.058449  -0.065799   0.097047
   17  C  2  S    0.291181  -0.145369   0.216968  -0.077611   0.200262
   18  C  2  S   -0.323410   0.213046   0.349984   0.305863  -0.921609
   19  C  2  X   -0.254425   0.087931   0.044708   0.362760  -0.014061
   20  C  2  Y   -0.120290   0.163933  -0.092577   0.075700  -0.081794
   21  C  2  Z    0.002994  -0.151656  -0.110519  -0.308344  -0.074754
   22  C  2  X    0.204482  -0.412436  -0.333922  -0.767136   0.409282
   23  C  2  Y    0.244496   0.440102   0.156597  -0.892424   1.264633
   24  C  2  Z   -0.041704   0.633929   0.075241   0.164188   0.482333
   25  C  2 XX    0.052731  -0.078453  -0.016486  -0.022716   0.007136
   26  C  2 YY    0.011629   0.018448  -0.034102  -0.025627   0.066953
   27  C  2 ZZ   -0.064360   0.060004   0.050588   0.048343  -0.074089
   28  C  2 XY   -0.012743  -0.071799  -0.053832   0.009551  -0.010478
   29  C  2 XZ    0.076896  -0.031246  -0.041405   0.057796  -0.121925
   30  C  2 YZ    0.059715   0.025866  -0.021913  -0.117487   0.004613
   31  C  3  S    0.139296   0.055362  -0.057999  -0.065903   0.098019
   32  C  3  S    0.290406   0.147369  -0.216339  -0.077054   0.202184
   33  C  3  S   -0.312676  -0.216969  -0.362474   0.316570  -0.926510
   34  C  3  X    0.257669   0.092150   0.045130  -0.366749   0.013172
   35  C  3  Y    0.113284   0.165907  -0.090108  -0.076874   0.086829
   36  C  3  Z    0.003719   0.151179   0.109579  -0.306294  -0.072340
   37  C  3  X   -0.188247  -0.420775  -0.341275   0.779918  -0.417042
   38  C  3  Y   -0.251458   0.429783   0.136082   0.893350  -1.262637
   39  C  3  Z   -0.038034  -0.633113  -0.065366   0.152629   0.484397
   40  C  3 XX    0.048731   0.078658   0.016308  -0.023067   0.008883
   41  C  3 YY    0.013061  -0.018500   0.034465  -0.024284   0.066015
   42  C  3 ZZ   -0.061792  -0.060158  -0.050772   0.047352  -0.074898
   43  C  3 XY   -0.013358   0.071378   0.054149   0.009445  -0.011015
   44  C  3 XZ   -0.075615  -0.032316  -0.040797  -0.056801   0.121798
   45  C  3 YZ   -0.057651   0.024714  -0.022062   0.118335  -0.005836
   46  C  4  S    0.129817   0.047365  -0.072685  -0.010989   0.053698
   47  C  4  S    0.215165   0.006657  -0.043086  -0.125600   0.136855
   48  C  4  S   -0.341448  -0.722433   0.321344  -0.647981   1.136203
   49  C  4  X    0.066470   0.143980   0.152764   0.039579  -0.033539
   50  C  4  Y   -0.156518   0.215028   0.198935   0.233393   0.016796
   51  C  4  Z    0.045406   0.336735   0.276669   0.209122   0.439913
   52  C  4  X   -0.250497  -0.054764  -0.054467  -0.086444   0.237803
   53  C  4  Y   -0.032426  -0.075611  -0.309363  -0.207758  -0.304051
   54  C  4  Z    0.182382  -0.350107  -0.274912  -0.510700  -0.275167
   55  C  4 XX    0.108352   0.087197  -0.051269   0.008833   0.017363
   56  C  4 YY   -0.035065  -0.031252  -0.017367   0.044679  -0.005153
   57  C  4 ZZ   -0.073287  -0.055945   0.068635  -0.053513  -0.012210
   58  C  4 XY   -0.090070  -0.052790   0.006387   0.004319   0.117406
   59  C  4 XZ   -0.059359  -0.032942   0.122878  -0.107316  -0.019022
   60  C  4 YZ   -0.059718  -0.085758   0.091293  -0.036475  -0.076094
   61  H  5  S    0.388191  -0.392263   0.296117   0.343799  -0.240192
   62  H  5  S   -0.303162   0.205482  -0.130969  -0.074964   0.412488
   63  H  5  X    0.089515  -0.053843   0.055612   0.020478  -0.037034
   64  H  5  Y   -0.028274   0.035863  -0.018104  -0.033931   0.038092
   65  H  5  Z    0.013455  -0.016518   0.002452   0.015048   0.011437
   66  H  6  S    0.421594  -0.258963   0.503464   0.218226   0.184847
   67  H  6  S    0.127348   0.073879  -0.335673  -0.176145  -0.524138
   68  H  6  X   -0.048940   0.058353  -0.064028  -0.059280  -0.053476
   69  H  6  Y    0.004230   0.017634  -0.035987  -0.022203  -0.077142
   70  H  6  Z   -0.022523   0.001469  -0.069394  -0.033394  -0.022889
   71  H  7  S    0.247155  -0.172646  -0.209935  -0.033869  -0.337437
   72  H  7  S   -0.103604   0.099718   0.328296   0.346101  -0.006041
   73  H  7  X    0.065005  -0.021451  -0.040636  -0.047034  -0.028435
   74  H  7  Y    0.004932  -0.016635  -0.033311  -0.015718   0.023739
   75  H  7  Z    0.041956   0.009442  -0.019759  -0.012223  -0.051334
   76  H  8  S    0.235663   0.172338   0.205841  -0.034276  -0.338418
   77  H  8  S   -0.091407  -0.101300  -0.331521   0.351811  -0.006583
   78  H  8  X   -0.062747  -0.022031  -0.040385   0.047299   0.028632
   79  H  8  Y   -0.004077  -0.016448  -0.033626   0.016090  -0.024197
   80  H  8  Z    0.041274  -0.009000   0.019582  -0.013060  -0.051377
   81  H  9  S    0.380576   0.394254  -0.298808   0.345947  -0.236414
   82  H  9  S   -0.306773  -0.208861   0.137244  -0.076494   0.414808
   83  H  9  X   -0.088928  -0.054375   0.056055  -0.020474   0.036295
   84  H  9  Y    0.028149   0.036403  -0.018771   0.034154  -0.038212
   85  H  9  Z    0.013969   0.016567  -0.002497   0.015052   0.011121
   86  H 10  S    0.424444   0.261609  -0.502636   0.219755   0.189608
   87  H 10  S    0.139523  -0.071017   0.326822  -0.174267  -0.534579
   88  H 10  X    0.048273   0.058611  -0.063136   0.059418   0.055016
   89  H 10  Y   -0.004510   0.017264  -0.034364   0.021750   0.077457
   90  H 10  Z   -0.022664  -0.001763   0.069747  -0.033644  -0.024449

                     36         37         38         39         40
                    0.8452     0.8490     0.8952     0.9121     0.9444
                     A          A          A          A          A   
    1  C  1  S    0.040195  -0.002675   0.008295  -0.010735  -0.021662
    2  C  1  S    0.191162  -0.045748   0.010897  -0.056560  -0.059805
    3  C  1  S    0.389076  -0.059122   0.403591   0.464878   0.472834
    4  C  1  X   -0.250977  -0.156673  -0.342903  -0.566756   0.481580
    5  C  1  Y    0.011963  -0.163942   0.115833   0.005364  -0.110073
    6  C  1  Z    0.187606   0.307896  -0.137328  -0.135339   0.187837
    7  C  1  X    0.749230   0.119217   0.724277   1.511029  -1.494094
    8  C  1  Y    0.604170  -0.062058  -0.057963  -0.150083   0.402513
    9  C  1  Z    0.180992  -0.912311   0.267892   0.549896  -0.454297
   10  C  1 XX   -0.018681  -0.001779  -0.018478   0.023844  -0.046400
   11  C  1 YY    0.020562   0.066333   0.043601   0.058137   0.021358
   12  C  1 ZZ   -0.001880  -0.064554  -0.025124  -0.081981   0.025042
   13  C  1 XY    0.007556  -0.041307  -0.127624  -0.100512   0.073924
   14  C  1 XZ   -0.054384   0.039426  -0.015539  -0.087892   0.044528
   15  C  1 YZ   -0.102365  -0.028280  -0.004580   0.020393   0.038315
   16  C  2  S    0.010832   0.030939  -0.054226  -0.003309   0.000777
   17  C  2  S   -0.071252   0.091072  -0.168881   0.053609   0.020419
   18  C  2  S   -0.516901  -0.054728  -0.411688  -0.349012  -0.944626
   19  C  2  X   -0.091322   0.176904  -0.372797   0.112369  -0.464776
   20  C  2  Y    0.313035   0.244913  -0.141892  -0.097321   0.011522
   21  C  2  Z   -0.346286  -0.553687  -0.200819   0.030840  -0.197191
   22  C  2  X   -0.083917   0.255049   1.379235  -0.259784   1.747927
   23  C  2  Y    0.205071  -0.779131  -0.027067   0.574580  -0.168617
   24  C  2  Z    0.670944   1.105288   0.850788  -0.070703   0.799198
   25  C  2 XX    0.043160  -0.068082   0.022343   0.004209   0.032002
   26  C  2 YY    0.004735   0.082808  -0.068894  -0.024839  -0.075500
   27  C  2 ZZ   -0.047895  -0.014726   0.046551   0.020630   0.043498
   28  C  2 XY    0.045070  -0.005325   0.128772   0.057381   0.092220
   29  C  2 XZ    0.123273  -0.022579   0.099068  -0.101444   0.006891
   30  C  2 YZ    0.055677  -0.034551   0.028460  -0.010956  -0.007532
   31  C  3  S    0.012925  -0.031236   0.054249  -0.003170  -0.005257
   32  C  3  S   -0.065015  -0.096369   0.169404   0.053151  -0.029854
   33  C  3  S   -0.518026   0.038941   0.408360  -0.358758   0.950083
   34  C  3  X    0.079754   0.184823  -0.372572  -0.109476  -0.455521
   35  C  3  Y   -0.327939   0.230007  -0.139145   0.099451   0.021397
   36  C  3  Z   -0.373155   0.532016   0.206948   0.029938   0.191140
   37  C  3  X    0.074799   0.253613   1.378616   0.240900   1.711640
[...]
                   Z -0.01713271 -0.24570438 -0.16347533  0.10007573  0.08805882

 TRANS. SAYVETZ    X  4.68013977  0.05039016  0.00002663 -0.00016387  0.00000005
                   Y  5.60167088 -0.72039964  0.00004648 -0.00019104  0.00000275
                   Z -0.49536672  0.00177457  0.00010452  0.00002006 -0.00008986
               TOTAL  7.31627044  0.72216200  0.00011745  0.00025250  0.00008990

   ROT. SAYVETZ    X -1.56916463-17.40423540  0.00004531 -0.00136163 -0.00004950
                   Y -1.08043851 -4.95560777  0.00005996  0.00698551 -0.00004211
                   Z  0.11436343  0.29000344  0.00421962  0.00013732 -0.00051326
               TOTAL  1.90858691 18.09833032  0.00422029  0.00711830  0.00051736

                         11          12          13          14          15
       FREQUENCY:       690.28      891.51      934.52      938.57     1001.10  
        SYMMETRY:         A           A           A           A           A   
    REDUCED MASS:      1.72031     1.91227     1.35492     1.34072     1.06789
    IR INTENSITY:      0.15487     0.00214     0.44477     0.75052     0.51206

  1   C            X  0.00455198  0.06769828  0.04081060  0.03770087  0.00034590
                   Y  0.02870819 -0.07061224  0.05042995  0.05190844 -0.00077688
                   Z  0.00323108 -0.01261281 -0.07832150 -0.07805732 -0.00133829
  2   C            X  0.00066586  0.09887336 -0.01405282 -0.01019694  0.01464519
                   Y -0.05568779 -0.03876624 -0.01871488 -0.01700241  0.02473239
                   Z  0.12198287  0.02251719  0.02749802  0.02643004 -0.04158644
  3   C            X  0.00021225 -0.09879020 -0.01415379  0.01028165 -0.01479920
                   Y -0.05615941  0.03885138 -0.01882269  0.01708637 -0.02489099
                   Z -0.12178695  0.02273687 -0.02738197  0.02630749 -0.04144635
  4   C            X  0.00454213 -0.06774180  0.04111469 -0.03796002 -0.00034228
                   Y  0.02869299  0.07056497  0.05074975 -0.05217427  0.00077993
                   Z -0.00334513 -0.01263221  0.07802445 -0.07768544 -0.00132919
  5   H            X  0.06283247 -0.09511236 -0.17737403 -0.16985888  0.08900802
                   Y  0.09589463 -0.32273727 -0.24514863 -0.22786112  0.11868582
                   Z -0.37784356 -0.24643829  0.33645253  0.35922391 -0.18569835
  6   H            X -0.17304365 -0.11483294 -0.15244555 -0.14182055 -0.15118725
                   Y  0.06095516  0.19985711 -0.18348124 -0.20345822 -0.19939558
                   Z  0.22003819  0.07406803  0.30170519  0.29637371  0.30540965
  7   H            X  0.05039896  0.06659407  0.01118409  0.02950120 -0.20562679
                   Y  0.16692242  0.00951192  0.05096019  0.01085078 -0.23999618
                   Z -0.05831844  0.05371386 -0.04206422 -0.04092616  0.39164229
  8   H            X  0.05062079 -0.06639223  0.01130752 -0.02961393  0.20704691
                   Y  0.16712957 -0.00930251  0.05108444 -0.01092517  0.24147163
                   Z  0.05754471  0.05400292  0.04177839 -0.04069128  0.39001422
  9   H            X  0.06424067  0.09417405 -0.17866962  0.17105250 -0.08970896
                   Y  0.09734742  0.32178686 -0.24652543  0.22906606 -0.11942747
                   Z  0.37726960 -0.24800297 -0.33505074  0.35756972 -0.18497634
 10   H            X -0.17384422  0.11512327 -0.15363091  0.14281657  0.15225793
                   Y  0.06006569 -0.19956427 -0.18472792  0.20448980  0.20051493
                   Z -0.21966080  0.07440365 -0.30066397  0.29496884  0.30406729

 TRANS. SAYVETZ    X -0.00005786  0.00002596 -0.00000942 -0.00000009 -0.00000079
                   Y  0.00003583  0.00000300 -0.00006296 -0.00000346  0.00000096
                   Z  0.00000457 -0.00000857  0.00000214  0.00005347  0.00004050
               TOTAL  0.00006820  0.00002750  0.00006370  0.00005358  0.00004052

   ROT. SAYVETZ    X  0.00110504 -0.00001871 -0.00118210 -0.00003882 -0.00001037
                   Y -0.00252202 -0.00004926 -0.00066489  0.00007349  0.00000166
                   Z -0.00000739  0.00081719  0.00002958  0.00071340 -0.00037167
               TOTAL  0.00275350  0.00081888  0.00135658  0.00071822  0.00037182

                         16          17          18          19          20
       FREQUENCY:      1016.50     1046.87     1145.33     1303.43     1311.53  
        SYMMETRY:         A           A           A           A           A   
    REDUCED MASS:      1.05768     1.38894     1.69240     1.27278     1.32054
    IR INTENSITY:      0.40661     0.04696     0.00001     0.10553     0.00775

  1   C            X -0.01374182 -0.06938531 -0.04214367 -0.04692429 -0.04665665
                   Y  0.01222898  0.03689738 -0.00174845 -0.03501118 -0.03702153
                   Z -0.00574777 -0.01565538 -0.01573099 -0.04458103 -0.04769218
  2   C            X  0.02659012  0.02928446  0.12589251  0.05932786  0.05497915
                   Y  0.02169332 -0.02678550  0.01689642  0.01130922  0.00952955
                   Z -0.02439558  0.06697542  0.01540919  0.02017141  0.04284986
  3   C            X  0.02667328  0.02903173 -0.12583892  0.05924390 -0.05481747
                   Y  0.02178921 -0.02703467 -0.01684256  0.01123785 -0.00937925
                   Z  0.02422100 -0.06697977  0.01593693 -0.02043039  0.04309312
  4   C            X -0.01373007 -0.06932778  0.04209117 -0.04675857  0.04647833
                   Y  0.01224654  0.03695721  0.00169241 -0.03484445  0.03684667
                   Z  0.00574192  0.01576981 -0.01589617  0.04488156 -0.04800087
  5   H            X  0.10301673  0.09535939  0.02723942  0.00600261 -0.01056708
                   Y  0.17518486  0.28361489  0.09521329  0.03283299 -0.00036902
                   Z -0.11530327  0.22214541  0.14562463  0.03186236 -0.00255670
  6   H            X -0.11036468  0.14154579  0.11359453  0.07975241  0.10307012
                   Y -0.25809507 -0.24719990 -0.18838446 -0.21935148 -0.27047122
                   Z  0.26800178 -0.13203806 -0.11758898 -0.11428151 -0.12806211
  7   H            X -0.14527835  0.24162538  0.28076486 -0.23369719 -0.19799718
                   Y -0.32071366 -0.15579718 -0.32291920  0.46839395  0.43909029
                   Z  0.37605925 -0.16552000 -0.02636036  0.19920743  0.18858099
  8   H            X -0.14664237  0.24222198 -0.28086629 -0.23445924  0.19868362
                   Y -0.32210401 -0.15516416  0.32279997  0.46766595 -0.43836040
                   Z -0.37433253  0.16522358 -0.02652720 -0.20010404  0.18948802
  9   H            X  0.10344925  0.09452084 -0.02669757  0.00587044  0.01057620
                   Y  0.17565592  0.28277481 -0.09466982  0.03269677  0.00039573
                   Z  0.11430898 -0.22355104  0.14608307 -0.03199705 -0.00262199
 10   H            X -0.11129050  0.14204670 -0.11404526  0.08018379 -0.10357162
                   Y -0.25907307 -0.24671555  0.18797796 -0.21891632  0.27000916
                   Z -0.26658226  0.13244000 -0.11788945  0.11481181 -0.12871068

 TRANS. SAYVETZ    X -0.00001484  0.00004825  0.00000277  0.00000080 -0.00000407
                   Y  0.00001997  0.00005976 -0.00000817  0.00002701  0.00000216
                   Z  0.00000363  0.00001056 -0.00000464 -0.00000627  0.00002529
               TOTAL  0.00002515  0.00007753  0.00000980  0.00002774  0.00002570

   ROT. SAYVETZ    X  0.00033162 -0.00036814 -0.00000065 -0.00024473  0.00000885
                   Y  0.00001303  0.00001989 -0.00002926  0.00033458  0.00000305
                   Z -0.00002597 -0.00000582 -0.00017266  0.00000769 -0.00020001
               TOTAL  0.00033289  0.00036872  0.00017513  0.00041460  0.00020023

                         21          22          23          24          25
       FREQUENCY:      1416.85     1462.71     1664.08     1719.01     3182.24  
        SYMMETRY:         A           A           A           A           A   
    REDUCED MASS:      1.20735     1.21706     3.80795     5.77942     1.06818
    IR INTENSITY:      0.02652     0.06318     0.17736     0.02220     0.16513

  1   C            X -0.00986372 -0.01105853 -0.01332782  0.01167638 -0.00369521
                   Y  0.00629496 -0.02954264  0.11380649 -0.10031110  0.02365771
                   Z -0.00050861 -0.02483129  0.06910639 -0.05960236  0.01378461
  2   C            X  0.02208015  0.04812671  0.02088855 -0.05063237  0.03261594
                   Y -0.06950360 -0.06116386 -0.10312166  0.13516623  0.00906937
                   Z -0.04540092 -0.01229963 -0.06679603  0.05460210  0.02237725
  3   C            X  0.02225847 -0.04817461  0.02115567  0.05082988 -0.03474435
                   Y -0.06933577  0.06111393 -0.10291421 -0.13492568 -0.00976466
                   Z  0.04557611 -0.01234843  0.06712212  0.05490059  0.02412973
  4   C            X -0.00986896  0.01097006 -0.01358936 -0.01189475  0.00400284
                   Y  0.00629168  0.02945148  0.11357671  0.10004968 -0.02484385
                   Z  0.00052588 -0.02498294 -0.06950082 -0.05991238  0.01455999
  5   H            X  0.16908845  0.20414328 -0.15072531  0.10017813  0.27589960
                   Y  0.30751391  0.31533129 -0.06851086  0.00732725 -0.18400223
                   Z  0.30234030  0.30076501 -0.10018731  0.07284742  0.01390714
  6   H            X -0.20803960 -0.22462883  0.16842079 -0.12209127 -0.22877860
                   Y  0.33394548  0.30589813 -0.12529944  0.08388408 -0.08649275
                   Z  0.11176153  0.09615087 -0.01497360 -0.01336287 -0.16893316
  7   H            X -0.10671993 -0.05284417 -0.10796984  0.08084113 -0.38016651
                   Y  0.11098356  0.11552053  0.06648181 -0.07019289 -0.13541599
                   Z  0.03229828  0.04515966 -0.00406848  0.00000959 -0.27534700
  8   H            X -0.10685479  0.05300985 -0.10798324 -0.08080941  0.40579811
                   Y  0.11090308 -0.11535076  0.06652813  0.07017147  0.14386121
                   Z -0.03233733  0.04539949  0.00421105  0.00003863 -0.29693693
  9   H            X  0.16797720 -0.20302546 -0.15038763 -0.09986478 -0.29096721
                   Y  0.30641663 -0.31421966 -0.06815585 -0.00704861  0.19416455
                   Z -0.30411959  0.30267578  0.10101371  0.07320870  0.01495892
 10   H            X -0.20845239  0.22497623  0.16851824  0.12199200  0.23989427
                   Y  0.33348924 -0.30549587 -0.12526731 -0.08389084  0.09028541
                   Z -0.11222974  0.09645762  0.01482146 -0.01349884 -0.17887712

 TRANS. SAYVETZ    X -0.00002244  0.00000718 -0.00001206 -0.00000268 -0.00000005
                   Y -0.00001788  0.00000393 -0.00004478  0.00000188 -0.00000165
                   Z  0.00000517 -0.00000135  0.00000314  0.00003113  0.00001695
               TOTAL  0.00002916  0.00000829  0.00004648  0.00003130  0.00001703

   ROT. SAYVETZ    X -0.00005889 -0.00000137  0.00000818  0.00001682 -0.00000120
                   Y -0.00014036  0.00000066  0.00001634  0.00000880 -0.00000142
                   Z -0.00001870 -0.00010675  0.00000494 -0.00003560 -0.00011945
               TOTAL  0.00015336  0.00010676  0.00001893  0.00004034  0.00011947

                         26          27          28          29          30
       FREQUENCY:      3182.44     3193.47     3196.31     3296.53     3296.65  
        SYMMETRY:         A           A           A           A           A   
    REDUCED MASS:      1.07094     1.07666     1.08215     1.11722     1.11751
    IR INTENSITY:      0.20786     0.29899     0.01252     0.42072     0.05130

  1   C            X  0.00401727 -0.00246875  0.00324997 -0.05996878 -0.06308774
                   Y -0.02098792 -0.03372920  0.03089985  0.01193283  0.01247844
                   Z -0.01193369 -0.02341663  0.02195969 -0.02147970 -0.02253403
  2   C            X -0.03701317  0.02317109 -0.02891518 -0.00419465 -0.00529752
                   Y -0.01299060  0.01501642 -0.01563644 -0.00171409 -0.00156447
                   Z -0.02650065  0.02123663 -0.02448149 -0.00334311 -0.00355239
  3   C            X -0.03485824  0.02311615  0.02878939 -0.00444007  0.00506919
                   Y -0.01232251  0.01495101  0.01552616 -0.00177463  0.00146287
                   Z  0.02525817 -0.02139695 -0.02461413  0.00353720 -0.00340395
  4   C            X  0.00383444 -0.00236799 -0.00314905 -0.06295399  0.05994615
                   Y -0.01944301 -0.03367903 -0.03079582  0.01260714 -0.01193378
                   Z  0.01111045  0.02356877  0.02206189  0.02276620 -0.02161849
  5   H            X -0.25403100 -0.29609488  0.26241385  0.39337991  0.41230482
                   Y  0.17010366  0.19685334 -0.17503065 -0.27391361 -0.28658771
                   Z -0.01205108 -0.01545264  0.01215174  0.01207879  0.01204542
  6   H            X  0.20086213  0.33749893 -0.30941166  0.32610058  0.34403705
                   Y  0.07591096  0.13184159 -0.12165349  0.13720811  0.14451667
                   Z  0.14910009  0.25232256 -0.23173879  0.25031328  0.26397768
  7   H            X  0.44570527 -0.28791686  0.34353695  0.04474533  0.04796489
                   Y  0.15905750 -0.10589615  0.12317838  0.01488638  0.01776745
                   Z  0.32648911 -0.21284955  0.24962158  0.03255703  0.03457315
  8   H            X  0.42050634 -0.28740715 -0.34217864  0.04694809 -0.04554898
                   Y  0.14934411 -0.10520748 -0.12209747  0.01562333 -0.01688003
                   Z -0.31113999  0.21448714  0.25099630 -0.03446341  0.03313213
  9   H            X -0.23652585 -0.29646553 -0.26229219  0.41326025 -0.39206425
                   Y  0.15848080  0.19717760  0.17500894 -0.28778327  0.27254032
                   Z  0.01144216  0.01581682  0.01244881 -0.01309319  0.01183951
 10   H            X  0.18574687  0.33682951  0.30822745  0.34199028 -0.32656758
                   Y  0.06987685  0.13101325  0.12066984  0.14332000 -0.13663155
                   Z -0.13924484 -0.25422710 -0.23305723 -0.26502083  0.25297158

 TRANS. SAYVETZ    X -0.00000800 -0.00001199 -0.00000027 -0.00000814  0.00000079
                   Y -0.00002937 -0.00001927  0.00000109 -0.00000558  0.00000070
                   Z -0.00000063 -0.00000015  0.00000675  0.00000073 -0.00000512
               TOTAL  0.00003044  0.00002269  0.00000685  0.00000990  0.00000523

   ROT. SAYVETZ    X  0.00003575  0.00001473 -0.00000679  0.00001972  0.00000062
                   Y  0.00004286 -0.00002853 -0.00000125  0.00001933 -0.00000496
                   Z  0.00000674 -0.00000137  0.00002996  0.00000227 -0.00002339
               TOTAL  0.00005622  0.00003214  0.00003074  0.00002771  0.00002391

 REFERENCE ON SAYVETZ CONDITIONS - A. SAYVETZ, J.CHEM.PHYS., 7, 383-389(1939).

 NOTE - THE MODES J,K ARE ORTHONORMALIZED ACCORDING TO
 SUM ON I   M(I) * (X(I,J)*X(I,K) + Y(I,J)*Y(I,K) + Z(I,J)*Z(I,K)) = DELTA(J,K)

  MODE FREQ(CM**-1)  SYMMETRY  RED. MASS  IR INTENS.
     1     176.806    A        1.780585    0.008531
     2       8.986    A        2.000239    0.000166
     3       2.973    A        3.328661    0.000000
     4       0.283    A        5.416221    0.000000
     5       0.081    A        5.402284    0.000000
     6       0.373    A        5.359221    0.000000
     7       6.763    A        2.985168    0.000065
     8     329.130    A        1.853978    0.041818
     9     350.267    A        1.653039    0.028559
    10     641.836    A        1.850165    0.275129
    11     690.276    A        1.720311    0.154866
    12     891.513    A        1.912271    0.002142
    13     934.516    A        1.354917    0.444769
    14     938.573    A        1.340718    0.750515
    15    1001.098    A        1.067890    0.512060
    16    1016.498    A        1.057685    0.406615
    17    1046.874    A        1.388938    0.046963
    18    1145.325    A        1.692397    0.000008
    19    1303.426    A        1.272781    0.105534
    20    1311.531    A        1.320544    0.007751
    21    1416.855    A        1.207347    0.026515
    22    1462.714    A        1.217062    0.063180
    23    1664.081    A        3.807946    0.177360
    24    1719.006    A        5.779420    0.022197
    25    3182.241    A        1.068179    0.165133
    26    3182.439    A        1.070936    0.207863
    27    3193.468    A        1.076663    0.298992
    28    3196.307    A        1.082150    0.012522
    29    3296.526    A        1.117215    0.420715
    30    3296.645    A        1.117513    0.051305

     -------------------------------
     THERMOCHEMISTRY AT T=  298.15 K
     -------------------------------

 USING IDEAL GAS, RIGID ROTOR, HARMONIC NORMAL MODE APPROXIMATIONS.
 P=  1.01325E+05 PASCAL.
 ALL FREQUENCIES ARE SCALED BY   1.00000
 THE MOMENTS OF INERTIA ARE (IN AMU*BOHR**2)
     66.12097   398.37011   404.75206
 THE ROTATIONAL SYMMETRY NUMBER IS  1.0
 THE ROTATIONAL CONSTANTS ARE (IN GHZ)
     27.26954     4.52616     4.45480
   1 IMAGINARY FREQUENCY VIBRATION(S) IS(ARE) EXCLUDED
     FROM THE FOLLOWING THERMOCHEMICAL ANALYSIS.
 THE HARMONIC ZERO POINT ENERGY IS (SCALED BY   1.000)
        0.084773 HARTREE/MOLECULE    18605.572779 CM**-1/MOLECULE 
       53.196055 KCAL/MOL              222.572296 KJ/MOL

               Q               LN Q
 ELEC.     1.00000E+00       0.000000
 TRANS.    1.56175E+07      16.563900
 ROT.      3.69614E+04      10.517631
 VIB.      1.79067E+00       0.582588
 TOT.      1.03365E+12      27.664119

              E         H         G         CV        CP        S
           KJ/MOL    KJ/MOL    KJ/MOL   J/MOL-K   J/MOL-K   J/MOL-K
 ELEC.      0.000     0.000     0.000     0.000     0.000     0.000
 TRANS.     3.718     6.197   -41.061    12.472    20.786   158.505
 ROT.       3.718     3.718   -26.073    12.472    12.472    99.919
 VIB.     226.018   226.018   221.128    34.552    34.552    16.400
 TOTAL    233.455   235.934   153.995    59.495    67.810   274.825
 VIB. THERMAL CORRECTION E(T)-E(0) = H(T)-H(0) =  3445.472 J/MOL

              E         H         G         CV        CP        S
         KCAL/MOL  KCAL/MOL  KCAL/MOL CAL/MOL-K CAL/MOL-K CAL/MOL-K
 ELEC.      0.000     0.000     0.000     0.000     0.000     0.000
 TRANS.     0.889     1.481    -9.814     2.981     4.968    37.884
 ROT.       0.889     0.889    -6.231     2.981     2.981    23.881
 VIB.      54.020    54.020    52.851     8.258     8.258     3.920
 TOTAL     55.797    56.389    36.806    14.220    16.207    65.685
 VIB. THERMAL CORRECTION E(T)-E(0) = H(T)-H(0) =   823.488 CAL/MOL
 ......END OF NORMAL COORDINATE ANALYSIS......
 CPU     0: STEP CPU TIME=     0.00 TOTAL CPU TIME=     2627.1 (   43.8 MIN)
 TOTAL WALL CLOCK TIME=     2627.1 SECONDS, CPU UTILIZATION IS 100.00%
                   580000  WORDS OF DYNAMIC MEMORY USED
 EXECUTION OF GAMESS TERMINATED NORMALLY Fri Oct 13 14:46:42 2017
 DDI: 3597112 bytes (3.4 MB / 0 MWords) used by master data server.

 ----------------------------------------
 CPU timing information for all processes
 ========================================
 0: 1713.171781 + 60.918390 = 1774.090171
 1: 1569.510460 + 58.063572 = 1627.574032
 2: 1592.317807 + 56.004359 = 1648.322166
 3: 1447.034075 + 55.583156 = 1502.617231
 4: 898.955762 + 49.530317 = 948.486079
 5: 698.681678 + 36.691435 = 735.373113
 6: 840.221386 + 40.451059 = 880.672445
 7: 703.486509 + 38.329445 = 741.815954
 ----------------------------------------
           Disk usage (in bytes)       
 ========================================
 ----------------------------------------
            Local date and time          
 ========================================
13.10.2017 - 14:46:49.02                          
