          ******************************************************
          *         GAMESS VERSION =  1 MAY 2013 (R1)          *
          *             FROM IOWA STATE UNIVERSITY             *
          * M.W.SCHMIDT, K.K.BALDRIDGE, J.A.BOATZ, S.T.ELBERT, *
          *   M.S.GORDON, J.H.JENSEN, S.KOSEKI, N.MATSUNAGA,   *
          *          K.A.NGUYEN, S.J.SU, T.L.WINDUS,           *
          *       TOGETHER WITH M.DUPUIS, J.A.MONTGOMERY       *
          *         J.COMPUT.CHEM.  14, 1347-1363(1993)        *
          *************** 64 BIT WINDOWS VERSION ***************

  SINCE 1993, STUDENTS AND POSTDOCS WORKING AT IOWA STATE UNIVERSITY
  AND ALSO IN THEIR VARIOUS JOBS AFTER LEAVING ISU HAVE MADE IMPORTANT
  CONTRIBUTIONS TO THE CODE:
     IVANA ADAMOVIC, CHRISTINE AIKENS, YURI ALEXEEV, POOJA ARORA,
     ANDREY ASADCHEV, ROB BELL, PRADIPTA BANDYOPADHYAY, JONATHAN BENTZ,
     BRETT BODE, GALINA CHABAN, WEI CHEN, CHEOL HO CHOI, PAUL DAY,
     ALBERT DEFUSCO, TIM DUDLEY, DMITRI FEDOROV, GRAHAM FLETCHER,
     MARK FREITAG, KURT GLAESEMANN, DAN KEMP, GRANT MERRILL,
     NORIYUKI MINEZAWA, JONATHAN MULLIN, TAKESHI NAGATA,
     SEAN NEDD, HEATHER NETZLOFF, BOSILJKA NJEGIC, RYAN OLSON, MIKE PAK,
     JIM SHOEMAKER, LYUDMILA SLIPCHENKO, SAROM SOK, JIE SONG,
     TETSUYA TAKETSUGU, SIMON WEBB, SOOHAENG YOO, FEDERICO ZAHARIEV

  ADDITIONAL CODE HAS BEEN PROVIDED BY COLLABORATORS IN OTHER GROUPS:
     IOWA STATE UNIVERSITY:
          JOE IVANIC, LAIMUTIS BYTAUTAS, KLAUS RUEDENBERG
     UNIVERSITY OF TOKYO: KIMIHIKO HIRAO, TAKAHITO NAKAJIMA,
          TAKAO TSUNEDA, MUNEAKI KAMIYA, SUSUMU YANAGISAWA,
          KIYOSHI YAGI, MAHITO CHIBA, SEIKEN TOKURA, NAOAKI KAWAKAMI
     UNIVERSITY OF AARHUS: FRANK JENSEN
     UNIVERSITY OF IOWA: VISVALDAS KAIRYS, HUI LI
     NATIONAL INST. OF STANDARDS AND TECHNOLOGY: WALT STEVENS, DAVID GARMER
     UNIVERSITY OF PISA: BENEDETTA MENNUCCI, JACOPO TOMASI
     UNIVERSITY OF MEMPHIS: HENRY KURTZ, PRAKASHAN KORAMBATH
     UNIVERSITY OF ALBERTA: TOBY ZENG, MARIUSZ KLOBUKOWSKI
     UNIVERSITY OF NEW ENGLAND: MARK SPACKMAN
     MIE UNIVERSITY: HIROAKI UMEDA
     MICHIGAN STATE UNIVERSITY:
          KAROL KOWALSKI, MARTA WLOCH, JEFFREY GOUR, JESSE LUTZ,
          WEI LI, PIOTR PIECUCH
     UNIVERSITY OF SILESIA: MONIKA MUSIAL, STANISLAW KUCHARSKI
     FACULTES UNIVERSITAIRES NOTRE-DAME DE LA PAIX:
          OLIVIER QUINET, BENOIT CHAMPAGNE
     UNIVERSITY OF CALIFORNIA - SANTA BARBARA: BERNARD KIRTMAN
     INSTITUTE FOR MOLECULAR SCIENCE:
          KAZUYA ISHIMURA, MICHIO KATOUDA, AND SHIGERU NAGASE
     UNIVERSITY OF NOTRE DAME: DAN CHIPMAN
     KYUSHU UNIVERSITY:
          HARUYUKI NAKANO,
          FENG LONG GU, JACEK KORCHOWIEC, MARCIN MAKOWSKI, AND YURIKO AOKI,
          HIROTOSHI MORI AND EISAKU MIYOSHI
     PENNSYLVANIA STATE UNIVERSITY:
          TZVETELIN IORDANOV, CHET SWALINA, JONATHAN SKONE,
          SHARON HAMMES-SCHIFFER
     WASEDA UNIVERSITY:
          MASATO KOBAYASHI, TOMOKO AKAMA, TSUGUKI TOUMA,
          TAKESHI YOSHIKAWA, YASUHIRO IKABATA, HIROMI NAKAI
     NANJING UNIVERSITY: SHUHUA LI
     UNIVERSITY OF NEBRASKA:
          PEIFENG SU, DEJUN SI, NANDUN THELLAMUREGE, YALI WANG, HUI LI
     UNIVERSITY OF ZURICH:
          ROBERTO PEVERATI, KIM BALDRIDGE
     N. COPERNICUS UNIVERSITY AND JACKSON STATE UNIVERSITY:
          MARIA BARYSZ


 PARALLEL VERSION RUNNING ON     4 PROCESSORS IN     4 NODES.

 EXECUTION OF GAMESS BEGUN Thu Nov 16 14:24:07 2023

            ECHO OF THE FIRST FEW INPUT CARDS -
 INPUT CARD> $basis gbasis=n31 ngauss=6 ndfunc=1 $end                                       
 INPUT CARD> $scf dirscf=.t. $end                                                           
 INPUT CARD> $DATA                                                                          
 INPUT CARD> C4H6                                                                           
 INPUT CARD>Cs                                                                              
 INPUT CARD>                                                                                
 INPUT CARD>CARBON      6.0     -0.557821218         0.000000000        -0.735585251        
 INPUT CARD>CARBON      6.0      0.522875525         0.000000000        -1.534457092        
 INPUT CARD>HYDROGEN    1.0     -1.539857539         0.000000000        -1.205481564        
 INPUT CARD>HYDROGEN    1.0      1.535769363         0.000000000        -1.143052878        
 INPUT CARD>HYDROGEN    1.0      0.420180565         0.000000000        -2.614099451        
 INPUT CARD> $END                                                                           
    1000000 WORDS OF MEMORY AVAILABLE

     BASIS OPTIONS
     -------------
     GBASIS=N31          IGAUSS=       6      POLAR=POPN31  
     NDFUNC=       1     NFFUNC=       0     DIFFSP=       F
     NPFUNC=       0      DIFFS=       F     BASNAM=        


     RUN TITLE
     ---------
  C4H6                                                                           

 THE POINT GROUP OF THE MOLECULE IS CS      
 THE ORDER OF THE PRINCIPAL AXIS IS     0

 ATOM      ATOMIC                      COORDINATES (BOHR)
           CHARGE         X                   Y                   Z
 CARBON      6.0    -1.0541292522        0.0000000000        1.3900545650
 CARBON      6.0    -1.0541292522        0.0000000000       -1.3900545650
 CARBON      6.0     0.9880914679        0.0000000000        2.8997034438
 CARBON      6.0     0.9880914679        0.0000000000       -2.8997034438
 HYDROGEN    1.0    -2.9099088088        0.0000000000        2.2780298392
 HYDROGEN    1.0    -2.9099088088        0.0000000000       -2.2780298392
 HYDROGEN    1.0     2.9021832764        0.0000000000        2.1600567289
 HYDROGEN    1.0     2.9021832764        0.0000000000       -2.1600567289
 HYDROGEN    1.0     0.7940261332        0.0000000000        4.9399316670
 HYDROGEN    1.0     0.7940261332        0.0000000000       -4.9399316670

          INTERNUCLEAR DISTANCES (ANGS.)
          ------------------------------

                1 CARB       2 CARB       3 CARB       4 CARB       5 HYDR  

   1 CARB    0.0000000    1.4711705 *  1.3439128 *  2.5141594 *  1.0886679 *
   2 CARB    1.4711705 *  0.0000000    2.5141594 *  1.3439128 *  2.1753473 *
   3 CARB    1.3439128 *  2.5141594 *  0.0000000    3.0689142    2.0888017 *
   4 CARB    2.5141594 *  1.3439128 *  3.0689142    0.0000000    3.4295964  
   5 HYDR    1.0886679 *  2.1753473 *  2.0888017 *  3.4295964    0.0000000  
   6 HYDR    2.1753473 *  1.0886679 *  3.4295964    2.0888017 *  2.4109631 *
   7 HYDR    2.1328740 *  2.8128993 *  1.0858873 *  2.8626934 *  3.0762604  
   8 HYDR    2.8128993 *  2.1328740 *  2.8626934 *  1.0858873 *  3.8697668  
   9 HYDR    2.1178534 *  3.4895379    1.0845155 *  4.1498274    2.4137012 *
  10 HYDR    3.4895379    2.1178534 *  4.1498274    1.0845155 *  4.2931281  

                6 HYDR       7 HYDR       8 HYDR       9 HYDR      10 HYDR  

   1 CARB    2.1753473 *  2.1328740 *  2.8128993 *  2.1178534 *  3.4895379  
   2 CARB    1.0886679 *  2.8128993 *  2.1328740 *  3.4895379    2.1178534 *
   3 CARB    3.4295964    1.0858873 *  2.8626934 *  1.0845155 *  4.1498274  
   4 CARB    2.0888017 *  2.8626934 *  1.0858873 *  4.1498274    1.0845155 *
   5 HYDR    2.4109631 *  3.0762604    3.8697668    2.4137012 *  4.2931281  
   6 HYDR    0.0000000    3.8697668    3.0762604    4.2931281    2.4137012 *
   7 HYDR    3.8697668    0.0000000    2.2861058 *  1.8462168 *  3.9192770  
   8 HYDR    3.0762604    2.2861058 *  0.0000000    3.9192770    1.8462168 *
   9 HYDR    4.2931281    1.8462168 *  3.9192770    0.0000000    5.2281989  
  10 HYDR    2.4137012 *  3.9192770    1.8462168 *  5.2281989    0.0000000  

  * ... LESS THAN  3.000


     ATOMIC BASIS SET
     ----------------
 THE CONTRACTED PRIMITIVE FUNCTIONS HAVE BEEN UNNORMALIZED
 THE CONTRACTED BASIS FUNCTIONS ARE NOW NORMALIZED TO UNITY

  SHELL TYPE  PRIMITIVE        EXPONENT          CONTRACTION COEFFICIENT(S)

 CARBON    

      5   S       1          3047.5248800    0.001834737132
      5   S       2           457.3695180    0.014037322813
      5   S       3           103.9486850    0.068842622264
      5   S       4            29.2101553    0.232184443216
      5   S       5             9.2866630    0.467941348435
      5   S       6             3.1639270    0.362311985337

      6   L       7             7.8682723   -0.119332419775    0.068999066591
      6   L       8             1.8812885   -0.160854151696    0.316423960957
      6   L       9             0.5442493    1.143456437840    0.744308290898

      7   L      10             0.1687145    1.000000000000    1.000000000000

      8   D      11             0.8000000    1.000000000000

 CARBON    

     13   S      12          3047.5248800    0.001834737132
     13   S      13           457.3695180    0.014037322813
     13   S      14           103.9486850    0.068842622264
     13   S      15            29.2101553    0.232184443216
     13   S      16             9.2866630    0.467941348435
     13   S      17             3.1639270    0.362311985337

     14   L      18             7.8682723   -0.119332419775    0.068999066591
     14   L      19             1.8812885   -0.160854151696    0.316423960957
     14   L      20             0.5442493    1.143456437840    0.744308290898

     15   L      21             0.1687145    1.000000000000    1.000000000000

     16   D      22             0.8000000    1.000000000000

 HYDROGEN  

     19   S      23            18.7311370    0.033494604338
     19   S      24             2.8253944    0.234726953484
     19   S      25             0.6401217    0.813757326146

     20   S      26             0.1612778    1.000000000000

 HYDROGEN  

     23   S      27            18.7311370    0.033494604338
     23   S      28             2.8253944    0.234726953484
     23   S      29             0.6401217    0.813757326146

     24   S      30             0.1612778    1.000000000000

 HYDROGEN  

     27   S      31            18.7311370    0.033494604338
     27   S      32             2.8253944    0.234726953484
     27   S      33             0.6401217    0.813757326146

     28   S      34             0.1612778    1.000000000000

 TOTAL NUMBER OF BASIS SET SHELLS             =   28
 NUMBER OF CARTESIAN GAUSSIAN BASIS FUNCTIONS =   72
 NUMBER OF ELECTRONS                          =   30
 CHARGE OF MOLECULE                           =    0
 SPIN MULTIPLICITY                            =    1
 NUMBER OF OCCUPIED ORBITALS (ALPHA)          =   15
 NUMBER OF OCCUPIED ORBITALS (BETA )          =   15
 TOTAL NUMBER OF ATOMS                        =   10
 THE NUCLEAR REPULSION ENERGY IS      104.5079680865

     $NEO OPTIONS
     ------------
     NUNIQN=       0     BASNUC=DZSNB        NEOSCF=NONE    
     NEOCI =NONE         NUMULT=       2     NUCST =       1
     NAUXNB=       0     VNUCEX=       F     NUCOPT=       F
     NTAUXB=       0     NEOHSS=       F     HSSINI=READH   
     HSSUPD=POWELLUP     DIRNUC=       F     SYMNUC=       F
     QMTOLN= 0.0E+00     USRDEX=       F
     POSNEO=       F     POSPRP=       F
     NEONCI=       F     LOCORB=       0

     $CONTRL OPTIONS
     ---------------
 SCFTYP=RHF          RUNTYP=ENERGY       EXETYP=RUN     
 MPLEVL=       0     CITYP =NONE         CCTYP =NONE         VBTYP =NONE    
 DFTTYP=NONE         TDDFT =NONE    
 MULT  =       1     ICHARG=       0     NZVAR =       0     COORD =UNIQUE  
 PP    =NONE         RELWFN=NONE         LOCAL =NONE         NUMGRD=       F
 ISPHER=      -1     NOSYM =       0     MAXIT =      30     UNITS =ANGS    
 PLTORB=       F     MOLPLT=       F     AIMPAC=       F     FRIEND=        
 NPRINT=       7     IREST =       0     GEOM  =INPUT   
 NORMF =       0     NORMP =       0     ITOL  =      20     ICUT  =       9
 INTTYP=BEST         GRDTYP=BEST         QMTTOL= 1.0E-06

     $SYSTEM OPTIONS
     ---------------
  REPLICATED MEMORY=     1000000 WORDS (ON EVERY NODE).
 DISTRIBUTED MEMDDI=           0 MILLION WORDS IN AGGREGATE,
 MEMDDI DISTRIBUTED OVER   4 PROCESSORS IS           0 WORDS/PROCESSOR.
 TOTAL MEMORY REQUESTED ON EACH PROCESSOR=     1000000 WORDS.
 TIMLIM=      525600.00 MINUTES, OR     365.0 DAYS.
 PARALL= T  BALTYP=  DLB     KDIAG=    0  COREFL= F
 MXSEQ2=     300 MXSEQ3=     150

          ----------------
          PROPERTIES INPUT
          ----------------

     MOMENTS            FIELD           POTENTIAL          DENSITY
 IEMOM =       1   IEFLD =       0   IEPOT =       0   IEDEN =       0
 WHERE =COMASS     WHERE =NUCLEI     WHERE =NUCLEI     WHERE =NUCLEI  
 OUTPUT=BOTH       OUTPUT=BOTH       OUTPUT=BOTH       OUTPUT=BOTH    
 IEMINT=       0   IEFINT=       0                     IEDINT=       0
                                                       MORB  =       0
          EXTRAPOLATION IN EFFECT
          SOSCF IN EFFECT
 ORBITAL PRINTING OPTION: NPREO=     1    72     2     1

     -------------------------------
     INTEGRAL TRANSFORMATION OPTIONS
     -------------------------------
     NWORD  =            0
     CUTOFF = 1.0E-09     MPTRAN =       0
     DIRTRF =       T     AOINTS =DUP     

          ----------------------
          INTEGRAL INPUT OPTIONS
          ----------------------
 NOPK  =       1 NORDER=       0 SCHWRZ=       T

     ------------------------------------------
     THE POINT GROUP IS CS , NAXIS= 0, ORDER= 2
     ------------------------------------------

     DIMENSIONS OF THE SYMMETRY SUBSPACES ARE
 A'  =   36     A'' =   36

 ..... DONE SETTING UP THE RUN .....
 CPU     0: STEP CPU TIME=     0.04 TOTAL CPU TIME=        0.0 (    0.0 MIN)
 TOTAL WALL CLOCK TIME=        0.0 SECONDS, CPU UTILIZATION IS 100.02%

          ********************
          1 ELECTRON INTEGRALS
          ********************
 ...... END OF ONE-ELECTRON INTEGRALS ......
 CPU     0: STEP CPU TIME=     0.03 TOTAL CPU TIME=        0.1 (    0.0 MIN)
 TOTAL WALL CLOCK TIME=        0.1 SECONDS, CPU UTILIZATION IS 100.01%

          -------------
          GUESS OPTIONS
          -------------
          GUESS =HUCKEL            NORB  =       0          NORDER=       0
          MIX   =       F          PRTMO =       F          PUNMO =       F
          TOLZ  = 1.0E-08          TOLE  = 1.0E-05
          SYMDEN=       F          PURIFY=       F

 INITIAL GUESS ORBITALS GENERATED BY HUCKEL   ROUTINE.
 HUCKEL GUESS REQUIRES     47668 WORDS.

 SYMMETRIES FOR INITIAL GUESS ORBITALS FOLLOW.   BOTH SET(S).
    15 ORBITALS ARE OCCUPIED (    4 CORE ORBITALS).
     5=A'       6=A''      7=A'       8=A'       9=A''     10=A''     11=A'  
    12=A'      13=A''     14=A'      15=A''     16=A'      17=A''     18=A'' 
    19=A'      20=A'      21=A'      22=A'      23=A'      24=A'      25=A'  
 ...... END OF INITIAL ORBITAL SELECTION ......
 CPU     0: STEP CPU TIME=     0.02 TOTAL CPU TIME=        0.1 (    0.0 MIN)
 TOTAL WALL CLOCK TIME=        0.1 SECONDS, CPU UTILIZATION IS 100.01%

                    ----------------------
                    AO INTEGRAL TECHNOLOGY
                    ----------------------
     S,P,L SHELL ROTATED AXIS INTEGRALS, REPROGRAMMED BY
        KAZUYA ISHIMURA (IMS) AND JOSE SIERRA (SYNSTAR).
     S,P,D,L SHELL ROTATED AXIS INTEGRALS PROGRAMMED BY
        KAZUYA ISHIMURA (INSTITUTE FOR MOLECULAR SCIENCE).
     S,P,D,F,G SHELL TO TOTAL QUARTET ANGULAR MOMENTUM SUM 5,
        ERIC PROGRAM BY GRAHAM FLETCHER (ELORET AND NASA ADVANCED
        SUPERCOMPUTING DIVISION, AMES RESEARCH CENTER).
     S,P,D,F,G,L SHELL GENERAL RYS QUADRATURE PROGRAMMED BY
        MICHEL DUPUIS (PACIFIC NORTHWEST NATIONAL LABORATORY).

          --------------------
          2 ELECTRON INTEGRALS
          --------------------

 DIRECT SCF METHOD SKIPS INTEGRAL STORAGE ON DISK.
 DIRECT TRANSFORMATION SKIPS AO INTEGRAL STORAGE ON DISK.
  ...... END OF TWO-ELECTRON INTEGRALS .....
 CPU     0: STEP CPU TIME=     0.12 TOTAL CPU TIME=        0.2 (    0.0 MIN)
 TOTAL WALL CLOCK TIME=        0.2 SECONDS, CPU UTILIZATION IS 100.00%

          --------------------------
                 RHF SCF CALCULATION
          --------------------------

     NUCLEAR ENERGY =       104.5079680865
     MAXIT =   30     NPUNCH=    2
     EXTRAP=T  DAMP=F  SHIFT=F  RSTRCT=F  DIIS=F  DEM=F  SOSCF=T
     DENSITY MATRIX CONV=  2.00E-05
     SOSCF WILL OPTIMIZE     855 ORBITAL ROTATIONS, SOGTOL=   0.250
     MEMORY REQUIRED FOR RHF ITERS=     86924 WORDS.

 DIRECT SCF CALCULATION, SCHWRZ=T   FDIFF=T,  DIRTHR=  0.00E+00 NITDIR=10
 SCHWARZ INEQUALITY OVERHEAD:      2627 INTEGRALS, T=        0.01

                                                                                   NONZERO     BLOCKS
 ITER EX DEM     TOTAL ENERGY        E CHANGE  DENSITY CHANGE     ORB. GRAD      INTEGRALS    SKIPPED
   1  0  0     -154.5572440912  -154.5572440912   0.126355047   0.000000000         893875       3481
          ---------------START SECOND ORDER SCF---------------
   2  1  0     -154.8913444046    -0.3341003134   0.070110996   0.051423145         893249       3831
   3  2  0     -154.9085590729    -0.0172146683   0.020701538   0.012562198         889854       4499
   4  3  0     -154.9116007588    -0.0030416859   0.005749666   0.003308792         885742       5163
   5  4  0     -154.9117386046    -0.0001378458   0.001627565   0.001241232         880077       5856
   6  5  0     -154.9117618938    -0.0000232892   0.000234720   0.000194593         870295       6980
   7  6  0     -154.9117623911    -0.0000004973   0.000111758   0.000089407         855852       8054
   8  7  0     -154.9117624633    -0.0000000723   0.000026387   0.000013794         846296       8887
   9  8  0     -154.9117624670    -0.0000000036   0.000009780   0.000003581         819120      10951
  10  9  0     -154.9117624674    -0.0000000004   0.000001844   0.000000908         802941      11846

          -----------------
          DENSITY CONVERGED
          -----------------
     TIME TO FORM FOCK OPERATORS=       1.1 SECONDS (       0.1 SEC/ITER)
     FOCK TIME ON FIRST ITERATION=       0.1, LAST ITERATION=       0.1
     TIME TO SOLVE SCF EQUATIONS=       0.0 SECONDS (       0.0 SEC/ITER)

 FINAL RHF ENERGY IS     -154.9117624674 AFTER  10 ITERATIONS

          ------------
          EIGENVECTORS
          ------------

                      1          2          3          4          5
                  -11.2380   -11.2372   -11.2282   -11.2282    -1.0809
                     A'         A''        A''        A'         A'  
    1  C  1  S    0.701652   0.701465  -0.061943  -0.056319  -0.131021
    2  C  1  S    0.019358   0.019305  -0.001839  -0.001822   0.251492
    3  C  1  X   -0.000002   0.000066  -0.000123  -0.000163   0.045667
    4  C  1  Y    0.000000   0.000000   0.000000   0.000000   0.000000
    5  C  1  Z   -0.000071  -0.000265  -0.000091  -0.000070  -0.025073
    6  C  1  S   -0.006168  -0.011925   0.004094   0.003177   0.170993
    7  C  1  X   -0.000421  -0.001376   0.001240   0.000962  -0.000775
    8  C  1  Y    0.000000   0.000000   0.000000   0.000000   0.000000
    9  C  1  Z   -0.000523   0.001695   0.000613   0.000735  -0.005573
   10  C  1 XX   -0.001357  -0.001014  -0.000130  -0.000086   0.006842
   11  C  1 YY   -0.001772  -0.001534   0.000101   0.000068  -0.011107
   12  C  1 ZZ   -0.001625  -0.000615  -0.000232  -0.000034   0.012931
   13  C  1 XY    0.000000   0.000000   0.000000   0.000000   0.000000
   14  C  1 XZ    0.000122   0.000281  -0.000029  -0.000049   0.002803
   15  C  1 YZ    0.000000   0.000000   0.000000   0.000000   0.000000
   16  C  2  S    0.701652  -0.701465   0.061943  -0.056319  -0.131021
   17  C  2  S    0.019358  -0.019305   0.001839  -0.001822   0.251492
   18  C  2  X   -0.000002  -0.000066   0.000123  -0.000163   0.045667
   19  C  2  Y    0.000000   0.000000   0.000000   0.000000   0.000000
   20  C  2  Z    0.000071  -0.000265  -0.000091   0.000070   0.025073
   21  C  2  S   -0.006168   0.011925  -0.004094   0.003177   0.170993
   22  C  2  X   -0.000421   0.001376  -0.001240   0.000962  -0.000775
   23  C  2  Y    0.000000   0.000000   0.000000   0.000000   0.000000
   24  C  2  Z    0.000523   0.001695   0.000613  -0.000735   0.005573
   25  C  2 XX   -0.001357   0.001014   0.000130  -0.000086   0.006842
   26  C  2 YY   -0.001772   0.001534  -0.000101   0.000068  -0.011107
   27  C  2 ZZ   -0.001625   0.000615   0.000232  -0.000034   0.012931
   28  C  2 XY    0.000000   0.000000   0.000000   0.000000   0.000000
   29  C  2 XZ   -0.000122   0.000281  -0.000029   0.000049  -0.002803
   30  C  2 YZ    0.000000   0.000000   0.000000   0.000000   0.000000
   31  C  3  S    0.055876   0.061483   0.701329   0.701781  -0.091157
   32  C  3  S    0.001240   0.001543   0.019356   0.019330   0.172183
   33  C  3  X    0.000094   0.000126  -0.000001  -0.000038  -0.056052
   34  C  3  Y    0.000000   0.000000   0.000000   0.000000   0.000000
   35  C  3  Z    0.000126   0.000041  -0.000057   0.000009  -0.051422
   36  C  3  S    0.002168   0.002983  -0.008800  -0.008135   0.128759
   37  C  3  X   -0.000687  -0.000741   0.000335   0.000497  -0.005580
   38  C  3  Y    0.000000   0.000000   0.000000   0.000000   0.000000
   39  C  3  Z   -0.001020  -0.001205   0.000610   0.000212  -0.006542
   40  C  3 XX   -0.000261  -0.000450  -0.001190  -0.001219   0.007323
   41  C  3 YY   -0.000228  -0.000161  -0.001735  -0.001795  -0.007525
   42  C  3 ZZ   -0.000245  -0.000295  -0.001270  -0.001339   0.005632
   43  C  3 XY    0.000000   0.000000   0.000000   0.000000   0.000000
   44  C  3 XZ    0.000026  -0.000029   0.000158   0.000156   0.005574
   45  C  3 YZ    0.000000   0.000000   0.000000   0.000000   0.000000
   46  C  4  S    0.055876  -0.061483  -0.701329   0.701781  -0.091157
   47  C  4  S    0.001240  -0.001543  -0.019356   0.019330   0.172183
   48  C  4  X    0.000094  -0.000126   0.000001  -0.000038  -0.056052
   49  C  4  Y    0.000000   0.000000   0.000000   0.000000   0.000000
   50  C  4  Z   -0.000126   0.000041  -0.000057  -0.000009   0.051422
   51  C  4  S    0.002168  -0.002983   0.008800  -0.008135   0.128759
   52  C  4  X   -0.000687   0.000741  -0.000335   0.000497  -0.005580
   53  C  4  Y    0.000000   0.000000   0.000000   0.000000   0.000000
   54  C  4  Z    0.001020  -0.001205   0.000610  -0.000212   0.006542
   55  C  4 XX   -0.000261   0.000450   0.001190  -0.001219   0.007323
   56  C  4 YY   -0.000228   0.000161   0.001735  -0.001795  -0.007525
   57  C  4 ZZ   -0.000245   0.000295   0.001270  -0.001339   0.005632
   58  C  4 XY    0.000000   0.000000   0.000000   0.000000   0.000000
   59  C  4 XZ   -0.000026  -0.000029   0.000158  -0.000156  -0.005574
   60  C  4 YZ    0.000000   0.000000   0.000000   0.000000   0.000000
   61  H  5  S   -0.000149  -0.000064  -0.000023  -0.000022   0.063311
   62  H  5  S    0.001276   0.001077  -0.000199  -0.000052   0.009282
   63  H  6  S   -0.000149   0.000064   0.000023  -0.000022   0.063311
   64  H  6  S    0.001276  -0.001077   0.000199  -0.000052   0.009282
   65  H  7  S   -0.000106  -0.000080  -0.000083  -0.000115   0.045840
   66  H  7  S   -0.000099  -0.000181   0.001803   0.001339   0.008549
   67  H  8  S   -0.000106   0.000080   0.000083  -0.000115   0.045840
   68  H  8  S   -0.000099   0.000181  -0.001803   0.001339   0.008549
   69  H  9  S   -0.000013  -0.000037  -0.000105  -0.000091   0.040929
   70  H  9  S    0.000289   0.000135   0.001393   0.001534   0.006304
   71  H 10  S   -0.000013   0.000037   0.000105  -0.000091   0.040929
   72  H 10  S    0.000289  -0.000135  -0.001393   0.001534   0.006304

                      6          7          8          9         10
                   -0.9863    -0.8399    -0.7227    -0.6638    -0.6057
                     A''        A'         A''        A'         A'  
    1  C  1  S   -0.089070   0.073652   0.085283   0.006620   0.010912
    2  C  1  S    0.172552  -0.146348  -0.169704  -0.017431  -0.021600
    3  C  1  X    0.065295   0.127346   0.073892  -0.182397  -0.205735
    4  C  1  Y    0.000000   0.000000   0.000000   0.000000   0.000000
    5  C  1  Z    0.110315   0.137788  -0.102308   0.177065  -0.200737
    6  C  1  S    0.127670  -0.131360  -0.163419  -0.006292  -0.007201
    7  C  1  X   -0.010532   0.044098   0.070902  -0.070156  -0.082112
    8  C  1  Y    0.000000   0.000000   0.000000   0.000000   0.000000
    9  C  1  Z    0.024302   0.034041  -0.027571   0.059752  -0.065629
   10  C  1 XX    0.011220  -0.001788  -0.012989   0.008900   0.000230
   11  C  1 YY   -0.005927   0.006800   0.006039  -0.000532  -0.000187
   12  C  1 ZZ   -0.004443  -0.013265   0.003937  -0.004433   0.005673
   13  C  1 XY    0.000000   0.000000   0.000000   0.000000   0.000000
   14  C  1 XZ    0.006940   0.007339   0.008088  -0.002839  -0.007553
   15  C  1 YZ    0.000000   0.000000   0.000000   0.000000   0.000000
   16  C  2  S    0.089070   0.073652  -0.085283   0.006620   0.010912
   17  C  2  S   -0.172552  -0.146348   0.169704  -0.017431  -0.021600
   18  C  2  X   -0.065295   0.127346  -0.073892  -0.182397  -0.205735
   19  C  2  Y    0.000000   0.000000   0.000000   0.000000   0.000000
   20  C  2  Z    0.110315  -0.137788  -0.102308  -0.177065   0.200737
   21  C  2  S   -0.127670  -0.131360   0.163419  -0.006292  -0.007201
   22  C  2  X    0.010532   0.044098  -0.070902  -0.070156  -0.082112
   23  C  2  Y    0.000000   0.000000   0.000000   0.000000   0.000000
   24  C  2  Z    0.024302  -0.034041  -0.027571  -0.059752   0.065629
   25  C  2 XX   -0.011220  -0.001788   0.012989   0.008900   0.000230
   26  C  2 YY    0.005927   0.006800  -0.006039  -0.000532  -0.000187
   27  C  2 ZZ    0.004443  -0.013265  -0.003937  -0.004433   0.005673
   28  C  2 XY    0.000000   0.000000   0.000000   0.000000   0.000000
   29  C  2 XZ    0.006940  -0.007339   0.008088   0.002839   0.007553
   30  C  2 YZ    0.000000   0.000000   0.000000   0.000000   0.000000
   31  C  3  S   -0.126058  -0.102931  -0.060801  -0.010477   0.001413
   32  C  3  S    0.238874   0.199299   0.118615   0.019151  -0.006962
   33  C  3  X   -0.060398   0.054111   0.183075  -0.079827   0.281582
   34  C  3  Y    0.000000   0.000000   0.000000   0.000000   0.000000
   35  C  3  Z   -0.029854   0.040865   0.080949   0.206239   0.094494
   36  C  3  S    0.208846   0.184704   0.117411   0.033628   0.030671
   37  C  3  X   -0.002375   0.023439   0.071405  -0.035556   0.111024
   38  C  3  Y    0.000000   0.000000   0.000000   0.000000   0.000000
   39  C  3  Z   -0.005932   0.019804   0.043763   0.082148   0.020748
   40  C  3 XX    0.010745   0.008474   0.004168  -0.005411   0.006645
   41  C  3 YY   -0.010431  -0.008969  -0.005797  -0.001098  -0.001586
   42  C  3 ZZ    0.008053   0.010579   0.011326   0.008691   0.003796
   43  C  3 XY    0.000000   0.000000   0.000000   0.000000   0.000000
   44  C  3 XZ    0.003885  -0.006580  -0.013149  -0.001561  -0.017191
   45  C  3 YZ    0.000000   0.000000   0.000000   0.000000   0.000000
   46  C  4  S    0.126058  -0.102931   0.060801  -0.010477   0.001413
   47  C  4  S   -0.238874   0.199299  -0.118615   0.019151  -0.006962
   48  C  4  X    0.060398   0.054111  -0.183075  -0.079827   0.281582
   49  C  4  Y    0.000000   0.000000   0.000000   0.000000   0.000000
   50  C  4  Z   -0.029854  -0.040865   0.080949  -0.206239  -0.094494
   51  C  4  S   -0.208846   0.184704  -0.117411   0.033628   0.030671
   52  C  4  X    0.002375   0.023439  -0.071405  -0.035556   0.111024
   53  C  4  Y    0.000000   0.000000   0.000000   0.000000   0.000000
   54  C  4  Z   -0.005932  -0.019804   0.043763  -0.082148  -0.020748
   55  C  4 XX   -0.010745   0.008474  -0.004168  -0.005411   0.006645
   56  C  4 YY    0.010431  -0.008969   0.005797  -0.001098  -0.001586
   57  C  4 ZZ   -0.008053   0.010579  -0.011326   0.008691   0.003796
   58  C  4 XY    0.000000   0.000000   0.000000   0.000000   0.000000
   59  C  4 XZ    0.003885   0.006580  -0.013149   0.001561   0.017191
   60  C  4 YZ    0.000000   0.000000   0.000000   0.000000   0.000000
   61  H  5  S    0.055091  -0.085385  -0.135778   0.129638   0.051279
   62  H  5  S    0.006453  -0.033206  -0.061030   0.088865   0.038765
   63  H  6  S   -0.055091  -0.085385   0.135778   0.129638   0.051279
   64  H  6  S   -0.006453  -0.033206   0.061030   0.088865   0.038765
   65  H  7  S    0.067681   0.102654   0.128957  -0.075763   0.143640
   66  H  7  S    0.009515   0.045955   0.071080  -0.050646   0.107684
   67  H  8  S   -0.067681   0.102654  -0.128957  -0.075763   0.143640
   68  H  8  S   -0.009515   0.045955  -0.071080  -0.050646   0.107684
   69  H  9  S    0.077385   0.099638   0.091404   0.129153   0.041653
   70  H  9  S    0.020214   0.039963   0.046538   0.082975   0.037157
   71  H 10  S   -0.077385   0.099638  -0.091404   0.129153   0.041653
   72  H 10  S   -0.020214   0.039963  -0.046538   0.082975   0.037157

                     11         12         13         14         15
                   -0.5775    -0.5119    -0.4955    -0.4334    -0.3154
                     A''        A''        A'         A'         A'' 
    1  C  1  S    0.017961  -0.011507   0.014156   0.000000   0.000000
    2  C  1  S   -0.040316   0.020545  -0.033381   0.000000   0.000000
    3  C  1  X   -0.176499  -0.244488  -0.089183   0.000000   0.000000
    4  C  1  Y    0.000000   0.000000   0.000000   0.294754   0.236256
    5  C  1  Z   -0.003740  -0.017825   0.283059   0.000000   0.000000
    6  C  1  S   -0.012517   0.045250  -0.037468   0.000000   0.000000
    7  C  1  X   -0.057725  -0.140085  -0.066331   0.000000   0.000000
    8  C  1  Y    0.000000   0.000000   0.000000   0.207139   0.217755
    9  C  1  Z   -0.013700   0.029199   0.138518   0.000000   0.000000
   10  C  1 XX   -0.002745   0.015804   0.023565   0.000000   0.000000
   11  C  1 YY   -0.000257  -0.001685   0.000085   0.000000   0.000000
   12  C  1 ZZ    0.009137  -0.007270  -0.020579   0.000000   0.000000
   13  C  1 XY    0.000000   0.000000   0.000000   0.012430   0.014914
   14  C  1 XZ   -0.012631  -0.024007  -0.006162   0.000000   0.000000
   15  C  1 YZ    0.000000   0.000000   0.000000  -0.001817   0.020068
   16  C  2  S   -0.017961   0.011507   0.014156   0.000000   0.000000
   17  C  2  S    0.040316  -0.020545  -0.033381   0.000000   0.000000
   18  C  2  X    0.176499   0.244488  -0.089183   0.000000   0.000000
   19  C  2  Y    0.000000   0.000000   0.000000   0.294754  -0.236256
   20  C  2  Z   -0.003740  -0.017825  -0.283059   0.000000   0.000000
   21  C  2  S    0.012517  -0.045250  -0.037468   0.000000   0.000000
   22  C  2  X    0.057725   0.140085  -0.066331   0.000000   0.000000
   23  C  2  Y    0.000000   0.000000   0.000000   0.207139  -0.217755
   24  C  2  Z   -0.013700   0.029199  -0.138518   0.000000   0.000000
   25  C  2 XX    0.002745  -0.015804   0.023565   0.000000   0.000000
   26  C  2 YY    0.000257   0.001685   0.000085   0.000000   0.000000
   27  C  2 ZZ   -0.009137   0.007270  -0.020579   0.000000   0.000000
   28  C  2 XY    0.000000   0.000000   0.000000   0.012430  -0.014914
   29  C  2 XZ   -0.012631  -0.024007   0.006162   0.000000   0.000000
   30  C  2 YZ    0.000000   0.000000   0.000000   0.001817   0.020068
   31  C  3  S    0.010716   0.016174  -0.002891   0.000000   0.000000
   32  C  3  S   -0.022243  -0.034616   0.005674   0.000000   0.000000
   33  C  3  X   -0.022651   0.257920   0.062048   0.000000   0.000000
   34  C  3  Y    0.000000   0.000000   0.000000   0.220985   0.306728
   35  C  3  Z    0.306108  -0.032778  -0.199496   0.000000   0.000000
   36  C  3  S   -0.019072  -0.021843   0.003200   0.000000   0.000000
   37  C  3  X   -0.028176   0.133182   0.043644   0.000000   0.000000
   38  C  3  Y    0.000000   0.000000   0.000000   0.169114   0.268491
   39  C  3  Z    0.145427  -0.044368  -0.124911   0.000000   0.000000
   40  C  3 XX   -0.013612   0.017525   0.021305   0.000000   0.000000
   41  C  3 YY   -0.000179   0.000094   0.000002   0.000000   0.000000
   42  C  3 ZZ    0.019137  -0.011089  -0.023580   0.000000   0.000000
   43  C  3 XY    0.000000   0.000000   0.000000  -0.014010  -0.014141
   44  C  3 XZ   -0.004783  -0.013551  -0.004640   0.000000   0.000000
   45  C  3 YZ    0.000000   0.000000   0.000000  -0.011198  -0.009000
   46  C  4  S   -0.010716  -0.016174  -0.002891   0.000000   0.000000
   47  C  4  S    0.022243   0.034616   0.005674   0.000000   0.000000
   48  C  4  X    0.022651  -0.257920   0.062048   0.000000   0.000000
   49  C  4  Y    0.000000   0.000000   0.000000   0.220985  -0.306728
   50  C  4  Z    0.306108  -0.032778   0.199496   0.000000   0.000000
   51  C  4  S    0.019072   0.021843   0.003200   0.000000   0.000000
   52  C  4  X    0.028176  -0.133182   0.043644   0.000000   0.000000
   53  C  4  Y    0.000000   0.000000   0.000000   0.169114  -0.268491
   54  C  4  Z    0.145427  -0.044368   0.124911   0.000000   0.000000
   55  C  4 XX    0.013612  -0.017525   0.021305   0.000000   0.000000
   56  C  4 YY    0.000179  -0.000094   0.000002   0.000000   0.000000
   57  C  4 ZZ   -0.019137   0.011089  -0.023580   0.000000   0.000000
   58  C  4 XY    0.000000   0.000000   0.000000  -0.014010   0.014141
   59  C  4 XZ   -0.004783  -0.013551   0.004640   0.000000   0.000000
   60  C  4 YZ    0.000000   0.000000   0.000000   0.011198  -0.009000
   61  H  5  S    0.080918   0.168570   0.132528   0.000000   0.000000
   62  H  5  S    0.071598   0.135458   0.118165   0.000000   0.000000
   63  H  6  S   -0.080918  -0.168570   0.132528   0.000000   0.000000
   64  H  6  S   -0.071598  -0.135458   0.118165   0.000000   0.000000
   65  H  7  S   -0.087603   0.155795   0.109271   0.000000   0.000000
   66  H  7  S   -0.053419   0.128742   0.101221   0.000000   0.000000
   67  H  8  S    0.087603  -0.155795   0.109271   0.000000   0.000000
   68  H  8  S    0.053419  -0.128742   0.101221   0.000000   0.000000
   69  H  9  S    0.184103  -0.059502  -0.148198   0.000000   0.000000
   70  H  9  S    0.139020  -0.040046  -0.125119   0.000000   0.000000
   71  H 10  S   -0.184103   0.059502  -0.148198   0.000000   0.000000
   72  H 10  S   -0.139020   0.040046  -0.125119   0.000000   0.000000

                     16         17         18         19         20
                    0.1172     0.2447     0.2586     0.2733     0.3037
                     A'         A'         A'         A''        A'' 
    1  C  1  S    0.000000   0.040942  -0.036413   0.000000   0.020450
    2  C  1  S    0.000000  -0.040574   0.042152   0.000000   0.001438
    3  C  1  X    0.000000   0.139413  -0.067064   0.000000   0.120649
    4  C  1  Y   -0.217449   0.000000   0.000000   0.321162   0.000000
    5  C  1  Z    0.000000  -0.060143   0.039645   0.000000  -0.068768
    6  C  1  S    0.000000  -0.826001   0.509603   0.000000  -0.622797
    7  C  1  X    0.000000   0.378670  -0.122549   0.000000   0.590595
    8  C  1  Y   -0.362992   0.000000   0.000000   0.774203   0.000000
    9  C  1  Z    0.000000  -0.240676   0.156976   0.000000   0.171862
   10  C  1 XX    0.000000   0.006650  -0.011606   0.000000   0.009844
   11  C  1 YY    0.000000   0.002778  -0.003284   0.000000   0.003559
   12  C  1 ZZ    0.000000  -0.002738   0.009829   0.000000  -0.010394
   13  C  1 XY    0.017491   0.000000   0.000000  -0.011384   0.000000
   14  C  1 XZ    0.000000  -0.017124   0.003113   0.000000   0.004277
   15  C  1 YZ    0.022645   0.000000   0.000000   0.013383   0.000000
   16  C  2  S    0.000000   0.040942  -0.036413   0.000000  -0.020450
   17  C  2  S    0.000000  -0.040574   0.042152   0.000000  -0.001438
   18  C  2  X    0.000000   0.139413  -0.067064   0.000000  -0.120649
   19  C  2  Y   -0.217449   0.000000   0.000000  -0.321162   0.000000
   20  C  2  Z    0.000000   0.060143  -0.039645   0.000000  -0.068768
   21  C  2  S    0.000000  -0.826001   0.509603   0.000000   0.622797
   22  C  2  X    0.000000   0.378670  -0.122549   0.000000  -0.590595
   23  C  2  Y   -0.362992   0.000000   0.000000  -0.774203   0.000000
   24  C  2  Z    0.000000   0.240676  -0.156976   0.000000   0.171862
   25  C  2 XX    0.000000   0.006650  -0.011606   0.000000  -0.009844
   26  C  2 YY    0.000000   0.002778  -0.003284   0.000000  -0.003559
   27  C  2 ZZ    0.000000  -0.002738   0.009829   0.000000   0.010394
   28  C  2 XY    0.017491   0.000000   0.000000   0.011384   0.000000
   29  C  2 XZ    0.000000   0.017124  -0.003113   0.000000   0.004277
   30  C  2 YZ   -0.022645   0.000000   0.000000   0.013383   0.000000
   31  C  3  S    0.000000   0.055725   0.067749   0.000000   0.050290
   32  C  3  S    0.000000  -0.077178  -0.071470   0.000000  -0.027309
   33  C  3  X    0.000000  -0.025294  -0.151616   0.000000   0.009641
   34  C  3  Y    0.276586   0.000000   0.000000  -0.194946   0.000000
   35  C  3  Z    0.000000  -0.083973   0.051425   0.000000  -0.205093
   36  C  3  S    0.000000  -0.757412  -1.113452   0.000000  -1.211502
   37  C  3  X    0.000000  -0.264001  -0.520241   0.000000   0.146389
   38  C  3  Y    0.505802   0.000000   0.000000  -0.553594   0.000000
   39  C  3  Z    0.000000  -0.355818   0.164949   0.000000  -0.641844
   40  C  3 XX    0.000000  -0.010181   0.003931   0.000000  -0.002727
   41  C  3 YY    0.000000   0.001262   0.006088   0.000000   0.006066
   42  C  3 ZZ    0.000000   0.016816  -0.001358   0.000000   0.004630
   43  C  3 XY    0.009326   0.000000   0.000000  -0.023755   0.000000
   44  C  3 XZ    0.000000  -0.001444  -0.003107   0.000000  -0.001329
   45  C  3 YZ    0.008169   0.000000   0.000000  -0.012769   0.000000
   46  C  4  S    0.000000   0.055725   0.067749   0.000000  -0.050290
   47  C  4  S    0.000000  -0.077178  -0.071470   0.000000   0.027309
   48  C  4  X    0.000000  -0.025294  -0.151616   0.000000  -0.009641
   49  C  4  Y    0.276586   0.000000   0.000000   0.194946   0.000000
   50  C  4  Z    0.000000   0.083973  -0.051425   0.000000  -0.205093
   51  C  4  S    0.000000  -0.757412  -1.113452   0.000000   1.211502
   52  C  4  X    0.000000  -0.264001  -0.520241   0.000000  -0.146389
   53  C  4  Y    0.505802   0.000000   0.000000   0.553594   0.000000
   54  C  4  Z    0.000000   0.355818  -0.164949   0.000000  -0.641844
   55  C  4 XX    0.000000  -0.010181   0.003931   0.000000   0.002727
   56  C  4 YY    0.000000   0.001262   0.006088   0.000000  -0.006066
   57  C  4 ZZ    0.000000   0.016816  -0.001358   0.000000  -0.004630
   58  C  4 XY    0.009326   0.000000   0.000000   0.023755   0.000000
   59  C  4 XZ    0.000000   0.001444   0.003107   0.000000  -0.001329
   60  C  4 YZ   -0.008169   0.000000   0.000000  -0.012769   0.000000
   61  H  5  S    0.000000   0.029673  -0.028837   0.000000   0.001399
   62  H  5  S    0.000000   0.994980  -0.635001   0.000000   0.833299
   63  H  6  S    0.000000   0.029673  -0.028837   0.000000  -0.001399
   64  H  6  S    0.000000   0.994980  -0.635001   0.000000  -0.833299
   65  H  7  S    0.000000  -0.017785   0.023080   0.000000   0.009655
   66  H  7  S    0.000000   0.334538   1.226546   0.000000   0.006308
   67  H  8  S    0.000000  -0.017785   0.023080   0.000000  -0.009655
   68  H  8  S    0.000000   0.334538   1.226546   0.000000  -0.006308
   69  H  9  S    0.000000   0.043013   0.009009   0.000000   0.008925
   70  H  9  S    0.000000   0.873817   0.207864   0.000000   1.388233
   71  H 10  S    0.000000   0.043013   0.009009   0.000000  -0.008925
   72  H 10  S    0.000000   0.873817   0.207864   0.000000  -1.388233

                     21         22         23         24         25
                    0.3442     0.3572     0.3643     0.4677     0.5082
                     A''        A'         A''        A'         A'' 
    1  C  1  S    0.086013  -0.033083   0.038520  -0.052570  -0.093117
    2  C  1  S   -0.115362  -0.000984  -0.062828   0.047689   0.011660
    3  C  1  X    0.098938  -0.093915   0.033453   0.161259   0.147775
    4  C  1  Y    0.000000   0.000000   0.000000   0.000000   0.000000
    5  C  1  Z   -0.021120   0.091886   0.143169   0.021490  -0.097668
    6  C  1  S   -1.280581   1.112477  -0.508946   2.237629   3.351632
    7  C  1  X    0.865916  -0.416599   0.650453   1.297596   2.093380
    8  C  1  Y    0.000000   0.000000   0.000000   0.000000   0.000000
    9  C  1  Z   -0.369300   0.660186   0.487775   0.919303  -1.381791
   10  C  1 XX   -0.004771   0.012663  -0.017079  -0.001209   0.018982
   11  C  1 YY    0.001059  -0.006836  -0.005882  -0.002631  -0.008151
   12  C  1 ZZ    0.010306  -0.008592   0.025616   0.016235   0.004759
   13  C  1 XY    0.000000   0.000000   0.000000   0.000000   0.000000
   14  C  1 XZ    0.005485  -0.007032   0.005461  -0.014682   0.018522
   15  C  1 YZ    0.000000   0.000000   0.000000   0.000000   0.000000
   16  C  2  S   -0.086013  -0.033083  -0.038520  -0.052570   0.093117
   17  C  2  S    0.115362  -0.000984   0.062828   0.047689  -0.011660
   18  C  2  X   -0.098938  -0.093915  -0.033453   0.161259  -0.147775
   19  C  2  Y    0.000000   0.000000   0.000000   0.000000   0.000000
   20  C  2  Z   -0.021120  -0.091886   0.143169  -0.021490  -0.097668
   21  C  2  S    1.280581   1.112477   0.508946   2.237629  -3.351632
   22  C  2  X   -0.865916  -0.416599  -0.650453   1.297596  -2.093380
   23  C  2  Y    0.000000   0.000000   0.000000   0.000000   0.000000
   24  C  2  Z   -0.369300  -0.660186   0.487775  -0.919303  -1.381791
   25  C  2 XX    0.004771   0.012663   0.017079  -0.001209  -0.018982
   26  C  2 YY   -0.001059  -0.006836   0.005882  -0.002631   0.008151
   27  C  2 ZZ   -0.010306  -0.008592  -0.025616   0.016235  -0.004759
   28  C  2 XY    0.000000   0.000000   0.000000   0.000000   0.000000
   29  C  2 XZ    0.005485   0.007032   0.005461   0.014682   0.018522
   30  C  2 YZ    0.000000   0.000000   0.000000   0.000000   0.000000
   31  C  3  S   -0.063564   0.029262   0.050220   0.060306   0.043133
   32  C  3  S    0.073871  -0.027573  -0.030602  -0.005819   0.028704
   33  C  3  X    0.018767   0.105626  -0.182361   0.079198  -0.096100
   34  C  3  Y    0.000000   0.000000   0.000000   0.000000   0.000000
   35  C  3  Z    0.047301  -0.175712   0.055199   0.028610   0.039296
   36  C  3  S    0.815031  -0.709239  -1.388177  -2.000295  -1.757078
   37  C  3  X   -0.198697   0.825593  -0.592474   1.403573   0.724511
   38  C  3  Y    0.000000   0.000000   0.000000   0.000000   0.000000
   39  C  3  Z    0.398503  -0.937791   0.613591   1.283779   1.773761
   40  C  3 XX   -0.004721   0.005124   0.018802   0.003519  -0.025955
   41  C  3 YY   -0.004009   0.002307   0.002666   0.007444   0.012184
   42  C  3 ZZ   -0.000103  -0.007202  -0.018007  -0.010792   0.006223
   43  C  3 XY    0.000000   0.000000   0.000000   0.000000   0.000000
   44  C  3 XZ   -0.007947  -0.001828  -0.011678   0.014668   0.024052
   45  C  3 YZ    0.000000   0.000000   0.000000   0.000000   0.000000
   46  C  4  S    0.063564   0.029262  -0.050220   0.060306  -0.043133
   47  C  4  S   -0.073871  -0.027573   0.030602  -0.005819  -0.028704
   48  C  4  X   -0.018767   0.105626   0.182361   0.079198   0.096100
   49  C  4  Y    0.000000   0.000000   0.000000   0.000000   0.000000
   50  C  4  Z    0.047301   0.175712   0.055199  -0.028610   0.039296
   51  C  4  S   -0.815031  -0.709239   1.388177  -2.000295   1.757078
   52  C  4  X    0.198697   0.825593   0.592474   1.403573  -0.724511
   53  C  4  Y    0.000000   0.000000   0.000000   0.000000   0.000000
   54  C  4  Z    0.398503   0.937791   0.613591  -1.283779   1.773761
   55  C  4 XX    0.004721   0.005124  -0.018802   0.003519   0.025955
   56  C  4 YY    0.004009   0.002307  -0.002666   0.007444  -0.012184
   57  C  4 ZZ    0.000103  -0.007202   0.018007  -0.010792  -0.006223
   58  C  4 XY    0.000000   0.000000   0.000000   0.000000   0.000000
   59  C  4 XZ   -0.007947   0.001828  -0.011678  -0.014668   0.024052
   60  C  4 YZ    0.000000   0.000000   0.000000   0.000000   0.000000
   61  H  5  S    0.014106   0.038758  -0.041564   0.046193   0.002477
   62  H  5  S    1.584070  -1.015961   0.363728   0.377729   1.156942
   63  H  6  S   -0.014106   0.038758   0.041564   0.046193  -0.002477
   64  H  6  S   -1.584070  -1.015961  -0.363728   0.377729  -1.156942
   65  H  7  S   -0.008657   0.018937   0.070234  -0.014112  -0.144624
   66  H  7  S   -0.258150  -0.863211   1.640260  -0.110936   0.548254
   67  H  8  S    0.008657   0.018937  -0.070234  -0.014112   0.144624
   68  H  8  S    0.258150  -0.863211  -1.640260  -0.110936  -0.548254
   69  H  9  S   -0.008569  -0.017235  -0.052017  -0.073370   0.020749
   70  H  9  S   -0.859999   1.441986  -0.281092  -0.409836  -0.797296
   71  H 10  S    0.008569  -0.017235   0.052017  -0.073370  -0.020749
   72  H 10  S    0.859999   1.441986   0.281092  -0.409836   0.797296

                     26         27         28         29         30
                    0.6172     0.6546     0.7301     0.7550     0.8125
                     A''        A'         A'         A'         A'' 
    1  C  1  S    0.019225  -0.010769  -0.012751   0.000000  -0.078206
    2  C  1  S   -0.044816  -0.199265  -0.202789   0.000000  -0.095039
    3  C  1  X    0.056598  -0.245200  -0.003103   0.000000  -0.038469
    4  C  1  Y    0.000000   0.000000   0.000000   0.489020   0.000000
    5  C  1  Z    0.269663  -0.163718   0.372155   0.000000  -0.451035
    6  C  1  S    0.255776   0.304061   0.347225   0.000000   0.496027
    7  C  1  X    1.669531   0.384610   0.008697   0.000000   0.862459
    8  C  1  Y    0.000000   0.000000   0.000000  -0.344435   0.000000
    9  C  1  Z    3.212987   0.485244  -0.352220   0.000000   0.978153
   10  C  1 XX   -0.005696  -0.038901   0.016959   0.000000  -0.054494
   11  C  1 YY   -0.011754  -0.001800  -0.001960   0.000000   0.062700
   12  C  1 ZZ    0.023044   0.001411  -0.086608   0.000000  -0.099424
   13  C  1 XY    0.000000   0.000000   0.000000   0.037004   0.000000
   14  C  1 XZ    0.010640  -0.069976  -0.037249   0.000000  -0.006628
   15  C  1 YZ    0.000000   0.000000   0.000000   0.008883   0.000000
   16  C  2  S   -0.019225  -0.010769  -0.012751   0.000000   0.078206
   17  C  2  S    0.044816  -0.199265  -0.202789   0.000000   0.095039
   18  C  2  X   -0.056598  -0.245200  -0.003103   0.000000   0.038469
   19  C  2  Y    0.000000   0.000000   0.000000   0.489020   0.000000
   20  C  2  Z    0.269663   0.163718  -0.372155   0.000000  -0.451035
   21  C  2  S   -0.255776   0.304061   0.347225   0.000000  -0.496027
   22  C  2  X   -1.669531   0.384610   0.008697   0.000000  -0.862459
   23  C  2  Y    0.000000   0.000000   0.000000  -0.344435   0.000000
   24  C  2  Z    3.212987  -0.485244   0.352220   0.000000   0.978153
   25  C  2 XX    0.005696  -0.038901   0.016959   0.000000   0.054494
   26  C  2 YY    0.011754  -0.001800  -0.001960   0.000000  -0.062700
   27  C  2 ZZ   -0.023044   0.001411  -0.086608   0.000000   0.099424
   28  C  2 XY    0.000000   0.000000   0.000000   0.037004   0.000000
   29  C  2 XZ    0.010640   0.069976   0.037249   0.000000  -0.006628
   30  C  2 YZ    0.000000   0.000000   0.000000  -0.008883   0.000000
   31  C  3  S    0.016387  -0.008055   0.011264   0.000000   0.000886
   32  C  3  S    0.055429  -0.246919  -0.171043   0.000000  -0.401518
   33  C  3  X    0.077560   0.303647  -0.192259   0.000000   0.340326
   34  C  3  Y    0.000000   0.000000   0.000000   0.557594   0.000000
   35  C  3  Z   -0.041671   0.310937   0.228019   0.000000   0.117351
   36  C  3  S   -2.116188   0.032828   0.314561   0.000000  -0.370430
   37  C  3  X    2.468741  -0.320476   0.615712   0.000000  -0.036437
   38  C  3  Y    0.000000   0.000000   0.000000  -0.474005   0.000000
   39  C  3  Z    0.592708  -0.433644  -0.209717   0.000000   0.365700
   40  C  3 XX    0.019809  -0.039202  -0.054568   0.000000  -0.054996
   41  C  3 YY    0.008528  -0.012785  -0.012106   0.000000   0.009920
   42  C  3 ZZ   -0.039033   0.000443   0.040523   0.000000  -0.048405
   43  C  3 XY    0.000000   0.000000   0.000000  -0.036411   0.000000
   44  C  3 XZ    0.006609  -0.031448   0.045213   0.000000   0.000663
   45  C  3 YZ    0.000000   0.000000   0.000000  -0.018003   0.000000
   46  C  4  S   -0.016387  -0.008055   0.011264   0.000000  -0.000886
   47  C  4  S   -0.055429  -0.246919  -0.171043   0.000000   0.401518
   48  C  4  X   -0.077560   0.303647  -0.192259   0.000000  -0.340326
   49  C  4  Y    0.000000   0.000000   0.000000   0.557594   0.000000
   50  C  4  Z   -0.041671  -0.310937  -0.228019   0.000000   0.117351
   51  C  4  S    2.116188   0.032828   0.314561   0.000000   0.370430
   52  C  4  X   -2.468741  -0.320476   0.615712   0.000000   0.036437
   53  C  4  Y    0.000000   0.000000   0.000000  -0.474005   0.000000
   54  C  4  Z    0.592708   0.433644   0.209717   0.000000   0.365700
   55  C  4 XX   -0.019809  -0.039202  -0.054568   0.000000   0.054996
   56  C  4 YY   -0.008528  -0.012785  -0.012106   0.000000  -0.009920
   57  C  4 ZZ    0.039033   0.000443   0.040523   0.000000   0.048405
   58  C  4 XY    0.000000   0.000000   0.000000  -0.036411   0.000000
   59  C  4 XZ    0.006609   0.031448  -0.045213   0.000000   0.000663
   60  C  4 YZ    0.000000   0.000000   0.000000   0.018003   0.000000
   61  H  5  S   -0.023122   0.135797   0.175992   0.000000  -0.282180
   62  H  5  S   -0.023194  -0.136533  -0.160405   0.000000   0.162890
   63  H  6  S    0.023122   0.135797   0.175992   0.000000   0.282180
   64  H  6  S    0.023194  -0.136533  -0.160405   0.000000  -0.162890
   65  H  7  S   -0.045292   0.003911  -0.318807   0.000000  -0.028254
   66  H  7  S   -1.460133  -0.097065  -0.194336   0.000000   0.074129
   67  H  8  S    0.045292   0.003911  -0.318807   0.000000   0.028254
   68  H  8  S    1.460133  -0.097065  -0.194336   0.000000  -0.074129
   69  H  9  S   -0.176739   0.080208   0.197794   0.000000  -0.135782
   70  H  9  S    0.156214  -0.050351  -0.114428   0.000000  -0.279305
   71  H 10  S    0.176739   0.080208   0.197794   0.000000   0.135782
   72  H 10  S   -0.156214  -0.050351  -0.114428   0.000000   0.279305

                     31         32         33         34         35
                    0.8197     0.8297     0.8877     0.9192     0.9264
                     A'         A''        A'         A'         A'' 
    1  C  1  S   -0.026943   0.000000   0.000000   0.054524   0.044716
    2  C  1  S   -0.648470   0.000000   0.000000   0.123836  -0.420603
    3  C  1  X    0.021221   0.000000   0.000000  -0.329751  -0.262447
    4  C  1  Y    0.000000   0.297006   0.596638   0.000000   0.000000
    5  C  1  Z    0.061444   0.000000   0.000000  -0.334027  -0.060891
    6  C  1  S    1.080251   0.000000   0.000000  -0.349845   0.457066
    7  C  1  X   -0.129057   0.000000   0.000000   0.291852  -0.467065
    8  C  1  Y    0.000000  -0.340287  -0.686637   0.000000   0.000000
    9  C  1  Z    0.094407   0.000000   0.000000   0.259850  -0.925473
   10  C  1 XX   -0.111690   0.000000   0.000000   0.091327   0.018314
   11  C  1 YY    0.031176   0.000000   0.000000  -0.051535  -0.042473
   12  C  1 ZZ   -0.094370   0.000000   0.000000   0.074296  -0.001682
   13  C  1 XY    0.000000   0.053420  -0.004786   0.000000   0.000000
   14  C  1 XZ    0.041521   0.000000   0.000000   0.067668   0.034453
   15  C  1 YZ    0.000000   0.024419  -0.058163   0.000000   0.000000
   16  C  2  S   -0.026943   0.000000   0.000000   0.054524  -0.044716
   17  C  2  S   -0.648470   0.000000   0.000000   0.123836   0.420603
   18  C  2  X    0.021221   0.000000   0.000000  -0.329751   0.262447
   19  C  2  Y    0.000000  -0.297006   0.596638   0.000000   0.000000
   20  C  2  Z   -0.061444   0.000000   0.000000   0.334027  -0.060891
   21  C  2  S    1.080251   0.000000   0.000000  -0.349845  -0.457066
   22  C  2  X   -0.129057   0.000000   0.000000   0.291852   0.467065
   23  C  2  Y    0.000000   0.340287  -0.686637   0.000000   0.000000
   24  C  2  Z   -0.094407   0.000000   0.000000  -0.259850  -0.925473
   25  C  2 XX   -0.111690   0.000000   0.000000   0.091327  -0.018314
   26  C  2 YY    0.031176   0.000000   0.000000  -0.051535   0.042473
   27  C  2 ZZ   -0.094370   0.000000   0.000000   0.074296   0.001682
   28  C  2 XY    0.000000  -0.053420  -0.004786   0.000000   0.000000
   29  C  2 XZ   -0.041521   0.000000   0.000000  -0.067668   0.034453
   30  C  2 YZ    0.000000   0.024419   0.058163   0.000000   0.000000
   31  C  3  S   -0.018028   0.000000   0.000000  -0.065645  -0.075426
   32  C  3  S   -0.448796   0.000000   0.000000  -0.165198  -0.351482
   33  C  3  X    0.041351   0.000000   0.000000  -0.340557  -0.294547
   34  C  3  Y    0.000000   0.695125  -0.540635   0.000000   0.000000
   35  C  3  Z   -0.058180   0.000000   0.000000  -0.175164  -0.247447
   36  C  3  S    0.647945   0.000000   0.000000   0.769767   1.751920
   37  C  3  X    0.164990   0.000000   0.000000   0.501790  -0.116083
   38  C  3  Y    0.000000  -0.651242   0.722460   0.000000   0.000000
   39  C  3  Z    0.338658   0.000000   0.000000   0.116112   0.137440
   40  C  3 XX   -0.040348   0.000000   0.000000  -0.119629  -0.117118
   41  C  3 YY    0.023486   0.000000   0.000000   0.055263   0.073617
   42  C  3 ZZ   -0.096347   0.000000   0.000000  -0.069325  -0.108537
   43  C  3 XY    0.000000  -0.022707  -0.013684   0.000000   0.000000
   44  C  3 XZ    0.011153   0.000000   0.000000  -0.037308  -0.020190
   45  C  3 YZ    0.000000  -0.031965  -0.010586   0.000000   0.000000
   46  C  4  S   -0.018028   0.000000   0.000000  -0.065645   0.075426
   47  C  4  S   -0.448796   0.000000   0.000000  -0.165198   0.351482
   48  C  4  X    0.041351   0.000000   0.000000  -0.340557   0.294547
   49  C  4  Y    0.000000  -0.695125  -0.540635   0.000000   0.000000
   50  C  4  Z    0.058180   0.000000   0.000000   0.175164  -0.247447
   51  C  4  S    0.647945   0.000000   0.000000   0.769767  -1.751920
   52  C  4  X    0.164990   0.000000   0.000000   0.501790   0.116083
   53  C  4  Y    0.000000   0.651242   0.722460   0.000000   0.000000
   54  C  4  Z   -0.338658   0.000000   0.000000  -0.116112   0.137440
   55  C  4 XX   -0.040348   0.000000   0.000000  -0.119629   0.117118
   56  C  4 YY    0.023486   0.000000   0.000000   0.055263  -0.073617
   57  C  4 ZZ   -0.096347   0.000000   0.000000  -0.069325   0.108537
   58  C  4 XY    0.000000   0.022707  -0.013684   0.000000   0.000000
   59  C  4 XZ   -0.011153   0.000000   0.000000   0.037308  -0.020190
   60  C  4 YZ    0.000000  -0.031965   0.010586   0.000000   0.000000
   61  H  5  S   -0.380321   0.000000   0.000000   0.192236   0.100039
   62  H  5  S   -0.138024   0.000000   0.000000   0.162182  -0.197663
   63  H  6  S   -0.380321   0.000000   0.000000   0.192236  -0.100039
   64  H  6  S   -0.138024   0.000000   0.000000   0.162182   0.197663
   65  H  7  S   -0.113861   0.000000   0.000000  -0.349560  -0.378662
   66  H  7  S   -0.132676   0.000000   0.000000  -0.200016   0.041827
   67  H  8  S   -0.113861   0.000000   0.000000  -0.349560   0.378662
   68  H  8  S   -0.132676   0.000000   0.000000  -0.200016  -0.041827
   69  H  9  S   -0.304761   0.000000   0.000000  -0.256667  -0.338991
   70  H  9  S   -0.155995   0.000000   0.000000  -0.088045  -0.145736
   71  H 10  S   -0.304761   0.000000   0.000000  -0.256667   0.338991
   72  H 10  S   -0.155995   0.000000   0.000000  -0.088045   0.145736

                     36         37         38         39         40
                    0.9422     1.0988     1.1266     1.1628     1.1648
                     A''        A'         A''        A'         A'' 
    1  C  1  S    0.000000  -0.002280  -0.029452  -0.016963   0.006187
    2  C  1  S    0.000000  -0.223066   0.287469   0.516122   0.072661
    3  C  1  X    0.000000   0.020646  -0.654854  -0.604375  -0.241882
    4  C  1  Y   -0.738427   0.000000   0.000000   0.000000   0.000000
    5  C  1  Z    0.000000   0.039128   0.290647   0.356092   0.192499
    6  C  1  S    0.000000  -0.015489   0.505643  -1.214959   0.501853
    7  C  1  X    0.000000   0.222369   2.140751   1.256554   1.481185
    8  C  1  Y    1.326524   0.000000   0.000000   0.000000   0.000000
    9  C  1  Z    0.000000  -0.544367  -1.653200  -0.748877  -0.938548
   10  C  1 XX    0.000000   0.078814  -0.042677  -0.011470   0.069090
   11  C  1 YY    0.000000  -0.011814   0.053994   0.079883  -0.022929
   12  C  1 ZZ    0.000000  -0.112104   0.077861   0.032252   0.001968
   13  C  1 XY   -0.001786   0.000000   0.000000   0.000000   0.000000
   14  C  1 XZ    0.000000  -0.040250   0.051158   0.100749  -0.038420
   15  C  1 YZ    0.003098   0.000000   0.000000   0.000000   0.000000
   16  C  2  S    0.000000  -0.002280   0.029452  -0.016963  -0.006187
   17  C  2  S    0.000000  -0.223066  -0.287469   0.516122  -0.072661
   18  C  2  X    0.000000   0.020646   0.654854  -0.604375   0.241882
   19  C  2  Y    0.738427   0.000000   0.000000   0.000000   0.000000
   20  C  2  Z    0.000000  -0.039128   0.290647  -0.356092   0.192499
   21  C  2  S    0.000000  -0.015489  -0.505643  -1.214959  -0.501853
   22  C  2  X    0.000000   0.222369  -2.140751   1.256554  -1.481185
   23  C  2  Y   -1.326524   0.000000   0.000000   0.000000   0.000000
   24  C  2  Z    0.000000   0.544367  -1.653200   0.748877  -0.938548
   25  C  2 XX    0.000000   0.078814   0.042677  -0.011470  -0.069090
   26  C  2 YY    0.000000  -0.011814  -0.053994   0.079883   0.022929
   27  C  2 ZZ    0.000000  -0.112104  -0.077861   0.032252  -0.001968
   28  C  2 XY    0.001786   0.000000   0.000000   0.000000   0.000000
   29  C  2 XZ    0.000000   0.040250   0.051158  -0.100749  -0.038420
   30  C  2 YZ    0.003098   0.000000   0.000000   0.000000   0.000000
   31  C  3  S    0.000000  -0.008841  -0.009569   0.014002   0.005864
   32  C  3  S    0.000000   0.057214   0.215707  -0.063815  -0.036987
   33  C  3  X    0.000000   0.451524  -0.012314   0.119501   0.460366
   34  C  3  Y    0.358304   0.000000   0.000000   0.000000   0.000000
   35  C  3  Z    0.000000  -0.587986   0.096571  -0.195643  -0.663493
   36  C  3  S    0.000000   0.017783  -0.982946  -0.033764  -0.467836
   37  C  3  X    0.000000  -1.138377  -0.286230  -0.317063  -1.056346
   38  C  3  Y   -0.693974   0.000000   0.000000   0.000000   0.000000
   39  C  3  Z    0.000000   1.327182   0.502429   0.820711   1.887201
   40  C  3 XX    0.000000  -0.091474   0.075847   0.003299  -0.053878
   41  C  3 YY    0.000000   0.027140   0.041108  -0.019214  -0.026646
   42  C  3 ZZ    0.000000   0.077373  -0.099009  -0.005401   0.065603
   43  C  3 XY    0.010269   0.000000   0.000000   0.000000   0.000000
   44  C  3 XZ    0.000000   0.034735  -0.041911  -0.022475  -0.009119
   45  C  3 YZ    0.028809   0.000000   0.000000   0.000000   0.000000
   46  C  4  S    0.000000  -0.008841   0.009569   0.014002  -0.005864
   47  C  4  S    0.000000   0.057214  -0.215707  -0.063815   0.036987
   48  C  4  X    0.000000   0.451524   0.012314   0.119501  -0.460366
   49  C  4  Y   -0.358304   0.000000   0.000000   0.000000   0.000000
   50  C  4  Z    0.000000   0.587986   0.096571   0.195643  -0.663493
   51  C  4  S    0.000000   0.017783   0.982946  -0.033764   0.467836
   52  C  4  X    0.000000  -1.138377   0.286230  -0.317063   1.056346
   53  C  4  Y    0.693974   0.000000   0.000000   0.000000   0.000000
   54  C  4  Z    0.000000  -1.327182   0.502429  -0.820711   1.887201
   55  C  4 XX    0.000000  -0.091474  -0.075847   0.003299   0.053878
   56  C  4 YY    0.000000   0.027140  -0.041108  -0.019214   0.026646
   57  C  4 ZZ    0.000000   0.077373   0.099009  -0.005401  -0.065603
   58  C  4 XY   -0.010269   0.000000   0.000000   0.000000   0.000000
   59  C  4 XZ    0.000000  -0.034735  -0.041911   0.022475  -0.009119
   60  C  4 YZ    0.028809   0.000000   0.000000   0.000000   0.000000
   61  H  5  S    0.000000   0.245496  -0.412832  -0.448040   0.070267
   62  H  5  S    0.000000  -0.139208   1.865536   1.530374   0.719650
   63  H  6  S    0.000000   0.245496   0.412832  -0.448040  -0.070267
   64  H  6  S    0.000000  -0.139208  -1.865536   1.530374  -0.719650
   65  H  7  S    0.000000  -0.311884   0.129892  -0.011712  -0.172146
   66  H  7  S    0.000000   1.194010   0.203647   0.247230   1.221474
   67  H  8  S    0.000000  -0.311884  -0.129892  -0.011712   0.172146
   68  H  8  S    0.000000   1.194010  -0.203647   0.247230  -1.221474
   69  H  9  S    0.000000   0.214625  -0.207864   0.144759   0.329321
   70  H  9  S    0.000000  -1.054301   0.184650  -0.587993  -1.393296
   71  H 10  S    0.000000   0.214625   0.207864   0.144759  -0.329321
   72  H 10  S    0.000000  -1.054301  -0.184650  -0.587993   1.393296

                     41         42         43         44         45
                    1.2067     1.2104     1.2584     1.2908     1.3036
                     A'         A''        A''        A''        A'  
    1  C  1  S    0.001482   0.030072   0.016167  -0.012778   0.020401
    2  C  1  S   -0.305161   0.552870   0.236542  -0.102431   0.800703
    3  C  1  X   -0.044472  -0.156512  -0.305470   0.262193   0.247524
    4  C  1  Y    0.000000   0.000000   0.000000   0.000000   0.000000
    5  C  1  Z   -0.114040  -0.570639  -0.305501  -0.101069   0.188784
    6  C  1  S    0.706089  -1.784533  -1.317516   1.368515  -3.494363
    7  C  1  X    0.190934   0.924828   1.423560  -2.048149  -1.066088
    8  C  1  Y    0.000000   0.000000   0.000000   0.000000   0.000000
    9  C  1  Z    0.212591   2.553224   2.778336  -2.248802  -1.366491
   10  C  1 XX    0.013439   0.159858   0.069543  -0.026176   0.035248
   11  C  1 YY   -0.024714  -0.026024   0.001973  -0.006145   0.004382
   12  C  1 ZZ   -0.019242  -0.043451  -0.010878   0.000284   0.075244
   13  C  1 XY    0.000000   0.000000   0.000000   0.000000   0.000000
   14  C  1 XZ    0.019102   0.025054   0.028687   0.068067  -0.147132
   15  C  1 YZ    0.000000   0.000000   0.000000   0.000000   0.000000
   16  C  2  S    0.001482  -0.030072  -0.016167   0.012778   0.020401
   17  C  2  S   -0.305161  -0.552870  -0.236542   0.102431   0.800703
   18  C  2  X   -0.044472   0.156512   0.305470  -0.262193   0.247524
   19  C  2  Y    0.000000   0.000000   0.000000   0.000000   0.000000
   20  C  2  Z    0.114040  -0.570639  -0.305501  -0.101069  -0.188784
   21  C  2  S    0.706089   1.784533   1.317516  -1.368515  -3.494363
   22  C  2  X    0.190934  -0.924828  -1.423560   2.048149  -1.066088
   23  C  2  Y    0.000000   0.000000   0.000000   0.000000   0.000000
   24  C  2  Z   -0.212591   2.553224   2.778336  -2.248802   1.366491
   25  C  2 XX    0.013439  -0.159858  -0.069543   0.026176   0.035248
   26  C  2 YY   -0.024714   0.026024  -0.001973   0.006145   0.004382
   27  C  2 ZZ   -0.019242   0.043451   0.010878  -0.000284   0.075244
   28  C  2 XY    0.000000   0.000000   0.000000   0.000000   0.000000
   29  C  2 XZ   -0.019102   0.025054   0.028687   0.068067   0.147132
   30  C  2 YZ    0.000000   0.000000   0.000000   0.000000   0.000000
   31  C  3  S    0.019102  -0.010214   0.012520  -0.002654  -0.026075
   32  C  3  S   -0.635121   0.877480  -0.454892  -0.062975  -1.070110
   33  C  3  X   -0.378020  -0.057431  -0.507622  -0.112795   0.191942
   34  C  3  Y    0.000000   0.000000   0.000000   0.000000   0.000000
   35  C  3  Z   -0.317332  -0.086378  -0.139266  -0.470384   0.025592
   36  C  3  S    0.998179  -2.529347  -0.250225   2.290967   4.029631
   37  C  3  X    0.546593   0.593202   1.996000  -0.979669  -1.495965
   38  C  3  Y    0.000000   0.000000   0.000000   0.000000   0.000000
   39  C  3  Z    0.539072   0.346544   0.065821   1.146507  -0.354572
   40  C  3 XX   -0.045667   0.019792  -0.063049   0.125550   0.004249
   41  C  3 YY   -0.103415   0.046261  -0.089136  -0.052985  -0.046337
   42  C  3 ZZ    0.015845   0.064460   0.046393  -0.086181  -0.121031
   43  C  3 XY    0.000000   0.000000   0.000000   0.000000   0.000000
   44  C  3 XZ   -0.111453  -0.021122  -0.124207  -0.021500   0.081341
   45  C  3 YZ    0.000000   0.000000   0.000000   0.000000   0.000000
   46  C  4  S    0.019102   0.010214  -0.012520   0.002654  -0.026075
   47  C  4  S   -0.635121  -0.877480   0.454892   0.062975  -1.070110
   48  C  4  X   -0.378020   0.057431   0.507622   0.112795   0.191942
   49  C  4  Y    0.000000   0.000000   0.000000   0.000000   0.000000
   50  C  4  Z    0.317332  -0.086378  -0.139266  -0.470384  -0.025592
   51  C  4  S    0.998179   2.529347   0.250225  -2.290967   4.029631
   52  C  4  X    0.546593  -0.593202  -1.996000   0.979669  -1.495965
   53  C  4  Y    0.000000   0.000000   0.000000   0.000000   0.000000
   54  C  4  Z   -0.539072   0.346544   0.065821   1.146507   0.354572
   55  C  4 XX   -0.045667  -0.019792   0.063049  -0.125550   0.004249
   56  C  4 YY   -0.103415  -0.046261   0.089136   0.052985  -0.046337
   57  C  4 ZZ    0.015845  -0.064460  -0.046393   0.086181  -0.121031
   58  C  4 XY    0.000000   0.000000   0.000000   0.000000   0.000000
   59  C  4 XZ    0.111453  -0.021122  -0.124207  -0.021500  -0.081341
   60  C  4 YZ    0.000000   0.000000   0.000000   0.000000   0.000000
   61  H  5  S    0.081260   0.178138  -0.001418  -0.255347   0.181510
   62  H  5  S   -0.097111  -0.095205   0.292298  -0.477143   0.048101
   63  H  6  S    0.081260  -0.178138   0.001418   0.255347   0.181510
   64  H  6  S   -0.097111   0.095205  -0.292298   0.477143   0.048101
   65  H  7  S    0.459601  -0.110939   0.340425   0.480842   0.037905
   66  H  7  S   -0.697339   0.369221  -1.658062  -0.147795  -0.051117
   67  H  8  S    0.459601   0.110939  -0.340425  -0.480842   0.037905
   68  H  8  S   -0.697339  -0.369221   1.658062   0.147795  -0.051117
   69  H  9  S    0.470230  -0.231263   0.441882  -0.264892  -0.189391
   70  H  9  S   -0.928307   0.311146  -0.473135  -0.795280  -0.442713
   71  H 10  S    0.470230   0.231263  -0.441882   0.264892  -0.189391
   72  H 10  S   -0.928307  -0.311146   0.473135   0.795280  -0.442713

                     46         47         48         49         50
                    1.4147     1.4915     1.6065     1.7294     1.7404
                     A''        A'         A'         A'         A'' 
    1  C  1  S   -0.043297   0.007760   0.000000   0.000000  -0.052105
    2  C  1  S   -1.133877  -0.321907   0.000000   0.000000  -0.988366
    3  C  1  X   -0.133553  -0.277967   0.000000   0.000000  -0.231606
    4  C  1  Y    0.000000   0.000000  -0.005117  -0.104597   0.000000
    5  C  1  Z   -0.085562   0.328189   0.000000   0.000000   0.013449
    6  C  1  S    4.311946  -0.531792   0.000000   0.000000   5.636220
    7  C  1  X    0.706881   1.253626   0.000000   0.000000   4.800226
    8  C  1  Y    0.000000   0.000000   0.034833   0.021342   0.000000
    9  C  1  Z    0.899385  -1.481959   0.000000   0.000000  -1.770293
   10  C  1 XX   -0.087564   0.067244   0.000000   0.000000   0.001857
   11  C  1 YY   -0.008591  -0.005289   0.000000   0.000000   0.000799
   12  C  1 ZZ   -0.038305  -0.090622   0.000000   0.000000   0.000900
   13  C  1 XY    0.000000   0.000000   0.124015   0.488451   0.000000
   14  C  1 XZ    0.073061  -0.043592   0.000000   0.000000  -0.044745
   15  C  1 YZ    0.000000   0.000000   0.488876  -0.232161   0.000000
   16  C  2  S    0.043297   0.007760   0.000000   0.000000   0.052105
   17  C  2  S    1.133877  -0.321907   0.000000   0.000000   0.988366
   18  C  2  X    0.133553  -0.277967   0.000000   0.000000   0.231606
   19  C  2  Y    0.000000   0.000000  -0.005117  -0.104597   0.000000
   20  C  2  Z   -0.085562  -0.328189   0.000000   0.000000   0.013449
   21  C  2  S   -4.311946  -0.531792   0.000000   0.000000  -5.636220
   22  C  2  X   -0.706881   1.253626   0.000000   0.000000  -4.800226
   23  C  2  Y    0.000000   0.000000   0.034833   0.021342   0.000000
   24  C  2  Z    0.899385   1.481959   0.000000   0.000000  -1.770293
   25  C  2 XX    0.087564   0.067244   0.000000   0.000000  -0.001857
   26  C  2 YY    0.008591  -0.005289   0.000000   0.000000  -0.000799
   27  C  2 ZZ    0.038305  -0.090622   0.000000   0.000000  -0.000900
   28  C  2 XY    0.000000   0.000000   0.124015   0.488451   0.000000
   29  C  2 XZ    0.073061   0.043592   0.000000   0.000000  -0.044745
   30  C  2 YZ    0.000000   0.000000  -0.488876   0.232161   0.000000
   31  C  3  S    0.025375   0.003059   0.000000   0.000000   0.024524
   32  C  3  S    0.848461   0.278151   0.000000   0.000000   0.249401
   33  C  3  X   -0.100936  -0.078957   0.000000   0.000000   0.125722
   34  C  3  Y    0.000000   0.000000  -0.135951  -0.047929   0.000000
   35  C  3  Z   -0.103185  -0.054611   0.000000   0.000000   0.087893
   36  C  3  S   -3.492394  -0.551091   0.000000   0.000000  -3.974577
   37  C  3  X    1.341607  -1.016865   0.000000   0.000000   0.075576
   38  C  3  Y    0.000000   0.000000   0.008539  -0.017503   0.000000
   39  C  3  Z    0.334129   1.540921   0.000000   0.000000   2.491637
   40  C  3 XX   -0.011626   0.105591   0.000000   0.000000   0.041244
   41  C  3 YY    0.032351   0.027205   0.000000   0.000000   0.045934
   42  C  3 ZZ    0.094653  -0.078076   0.000000   0.000000  -0.075856
   43  C  3 XY    0.000000   0.000000  -0.317981  -0.010616   0.000000
   44  C  3 XZ   -0.074400  -0.065062   0.000000   0.000000  -0.115970
   45  C  3 YZ    0.000000   0.000000  -0.092557  -0.362147   0.000000
   46  C  4  S   -0.025375   0.003059   0.000000   0.000000  -0.024524
   47  C  4  S   -0.848461   0.278151   0.000000   0.000000  -0.249401
   48  C  4  X    0.100936  -0.078957   0.000000   0.000000  -0.125722
   49  C  4  Y    0.000000   0.000000  -0.135951  -0.047929   0.000000
   50  C  4  Z   -0.103185   0.054611   0.000000   0.000000   0.087893
   51  C  4  S    3.492394  -0.551091   0.000000   0.000000   3.974577
   52  C  4  X   -1.341607  -1.016865   0.000000   0.000000  -0.075576
   53  C  4  Y    0.000000   0.000000   0.008539  -0.017503   0.000000
   54  C  4  Z    0.334129  -1.540921   0.000000   0.000000   2.491637
   55  C  4 XX    0.011626   0.105591   0.000000   0.000000  -0.041244
   56  C  4 YY   -0.032351   0.027205   0.000000   0.000000  -0.045934
   57  C  4 ZZ   -0.094653  -0.078076   0.000000   0.000000   0.075856
   58  C  4 XY    0.000000   0.000000  -0.317981  -0.010616   0.000000
   59  C  4 XZ   -0.074400   0.065062   0.000000   0.000000  -0.115970
   60  C  4 YZ    0.000000   0.000000   0.092557   0.362147   0.000000
   61  H  5  S   -0.382374   0.425962   0.000000   0.000000   0.712487
   62  H  5  S   -0.402517   0.715657   0.000000   0.000000   1.292592
   63  H  6  S    0.382374   0.425962   0.000000   0.000000  -0.712487
   64  H  6  S    0.402517   0.715657   0.000000   0.000000  -1.292592
   65  H  7  S   -0.101792   0.446738   0.000000   0.000000   0.553376
   66  H  7  S    0.092179   0.624117   0.000000   0.000000   0.517674
   67  H  8  S    0.101792   0.446738   0.000000   0.000000  -0.553376
   68  H  8  S   -0.092179   0.624117   0.000000   0.000000  -0.517674
   69  H  9  S    0.310389  -0.510138   0.000000   0.000000  -0.213630
   70  H  9  S    0.290172  -0.367005   0.000000   0.000000  -0.502091
   71  H 10  S   -0.310389  -0.510138   0.000000   0.000000   0.213630
   72  H 10  S   -0.290172  -0.367005   0.000000   0.000000   0.502091

                     51         52         53         54         55
                    1.8018     1.9416     2.0458     2.0806     2.1915
                     A''        A''        A'         A'         A'  
    1  C  1  S    0.000000   0.000000   0.000000  -0.010593  -0.027641
    2  C  1  S    0.000000   0.000000   0.000000  -0.366169  -0.007428
    3  C  1  X    0.000000   0.000000   0.000000  -0.031276  -0.100143
    4  C  1  Y   -0.129914   0.014075  -0.064865   0.000000   0.000000
    5  C  1  Z    0.000000   0.000000   0.000000   0.206248  -0.115661
    6  C  1  S    0.000000   0.000000   0.000000   0.558840   0.407298
    7  C  1  X    0.000000   0.000000   0.000000  -0.062562   0.040706
    8  C  1  Y   -0.031868   0.201164   0.012867   0.000000   0.000000
    9  C  1  Z    0.000000   0.000000   0.000000  -0.138779   0.356618
   10  C  1 XX    0.000000   0.000000   0.000000  -0.053414   0.514652
   11  C  1 YY    0.000000   0.000000   0.000000  -0.471344  -0.338243
   12  C  1 ZZ    0.000000   0.000000   0.000000   0.412361  -0.235077
   13  C  1 XY    0.426149  -0.028474   0.214717   0.000000   0.000000
   14  C  1 XZ    0.000000   0.000000   0.000000  -0.186448   0.053411
   15  C  1 YZ    0.041551  -0.196261  -0.239844   0.000000   0.000000
   16  C  2  S    0.000000   0.000000   0.000000  -0.010593  -0.027641
   17  C  2  S    0.000000   0.000000   0.000000  -0.366169  -0.007428
   18  C  2  X    0.000000   0.000000   0.000000  -0.031276  -0.100143
   19  C  2  Y    0.129914  -0.014075  -0.064865   0.000000   0.000000
   20  C  2  Z    0.000000   0.000000   0.000000  -0.206248   0.115661
   21  C  2  S    0.000000   0.000000   0.000000   0.558840   0.407298
   22  C  2  X    0.000000   0.000000   0.000000  -0.062562   0.040706
   23  C  2  Y    0.031868  -0.201164   0.012867   0.000000   0.000000
   24  C  2  Z    0.000000   0.000000   0.000000   0.138779  -0.356618
   25  C  2 XX    0.000000   0.000000   0.000000  -0.053414   0.514652
   26  C  2 YY    0.000000   0.000000   0.000000  -0.471344  -0.338243
   27  C  2 ZZ    0.000000   0.000000   0.000000   0.412361  -0.235077
   28  C  2 XY   -0.426149   0.028474   0.214717   0.000000   0.000000
   29  C  2 XZ    0.000000   0.000000   0.000000   0.186448  -0.053411
   30  C  2 YZ    0.041551  -0.196261   0.239844   0.000000   0.000000
   31  C  3  S    0.000000   0.000000   0.000000  -0.014609  -0.016099
   32  C  3  S    0.000000   0.000000   0.000000   0.058318  -0.180682
   33  C  3  X    0.000000   0.000000   0.000000   0.067095   0.061862
   34  C  3  Y   -0.132070   0.038846  -0.003780   0.000000   0.000000
   35  C  3  Z    0.000000   0.000000   0.000000  -0.127315   0.218054
   36  C  3  S    0.000000   0.000000   0.000000   0.040151   0.109630
   37  C  3  X    0.000000   0.000000   0.000000   0.161047  -0.011377
   38  C  3  Y    0.082301  -0.084439   0.001332   0.000000   0.000000
   39  C  3  Z    0.000000   0.000000   0.000000   0.191316   0.069415
   40  C  3 XX    0.000000   0.000000   0.000000   0.258811  -0.109317
   41  C  3 YY    0.000000   0.000000   0.000000  -0.306398  -0.343718
   42  C  3 ZZ    0.000000   0.000000   0.000000   0.025150   0.327970
   43  C  3 XY   -0.243866   0.530162  -0.430523   0.000000   0.000000
   44  C  3 XZ    0.000000   0.000000   0.000000  -0.182518   0.136162
   45  C  3 YZ   -0.405804  -0.410202   0.475934   0.000000   0.000000
   46  C  4  S    0.000000   0.000000   0.000000  -0.014609  -0.016099
   47  C  4  S    0.000000   0.000000   0.000000   0.058318  -0.180682
   48  C  4  X    0.000000   0.000000   0.000000   0.067095   0.061862
   49  C  4  Y    0.132070  -0.038846  -0.003780   0.000000   0.000000
   50  C  4  Z    0.000000   0.000000   0.000000   0.127315  -0.218054
   51  C  4  S    0.000000   0.000000   0.000000   0.040151   0.109630
   52  C  4  X    0.000000   0.000000   0.000000   0.161047  -0.011377
   53  C  4  Y   -0.082301   0.084439   0.001332   0.000000   0.000000
   54  C  4  Z    0.000000   0.000000   0.000000  -0.191316  -0.069415
   55  C  4 XX    0.000000   0.000000   0.000000   0.258811  -0.109317
   56  C  4 YY    0.000000   0.000000   0.000000  -0.306398  -0.343718
   57  C  4 ZZ    0.000000   0.000000   0.000000   0.025150   0.327970
   58  C  4 XY    0.243866  -0.530162  -0.430523   0.000000   0.000000
   59  C  4 XZ    0.000000   0.000000   0.000000   0.182518  -0.136162
   60  C  4 YZ   -0.405804  -0.410202  -0.475934   0.000000   0.000000
   61  H  5  S    0.000000   0.000000   0.000000  -0.152045  -0.329360
   62  H  5  S    0.000000   0.000000   0.000000  -0.127065  -0.046270
   63  H  6  S    0.000000   0.000000   0.000000  -0.152045  -0.329360
   64  H  6  S    0.000000   0.000000   0.000000  -0.127065  -0.046270
   65  H  7  S    0.000000   0.000000   0.000000  -0.334095   0.147145
   66  H  7  S    0.000000   0.000000   0.000000   0.053137  -0.090746
   67  H  8  S    0.000000   0.000000   0.000000  -0.334095   0.147145
   68  H  8  S    0.000000   0.000000   0.000000   0.053137  -0.090746
   69  H  9  S    0.000000   0.000000   0.000000  -0.009342  -0.316795
   70  H  9  S    0.000000   0.000000   0.000000  -0.138211  -0.025344
   71  H 10  S    0.000000   0.000000   0.000000  -0.009342  -0.316795
   72  H 10  S    0.000000   0.000000   0.000000  -0.138211  -0.025344

                     56         57         58         59         60
                    2.2726     2.3293     2.4350     2.4825     2.5489
                     A'         A''        A''        A''        A'  
    1  C  1  S   -0.007706  -0.023771   0.011940   0.000000   0.020300
    2  C  1  S   -0.213945  -0.323049  -0.167611   0.000000   0.349648
    3  C  1  X    0.016389  -0.093096  -0.181256   0.000000   0.140899
    4  C  1  Y    0.000000   0.000000   0.000000  -0.050060   0.000000
    5  C  1  Z   -0.019443   0.142018   0.134257   0.000000  -0.076677
    6  C  1  S   -0.023488   1.366851  -0.376902   0.000000  -0.879797
    7  C  1  X    0.411943   0.043551   0.108137   0.000000  -0.263347
    8  C  1  Y    0.000000   0.000000   0.000000  -0.382165   0.000000
    9  C  1  Z   -0.149385  -1.162450   0.750059   0.000000  -0.199108
   10  C  1 XX   -0.123527   0.308869   0.294969   0.000000  -0.170884
   11  C  1 YY   -0.088796  -0.291472  -0.052345   0.000000   0.401403
   12  C  1 ZZ    0.078687  -0.013528  -0.342953   0.000000  -0.173910
   13  C  1 XY    0.000000   0.000000   0.000000  -0.477002   0.000000
   14  C  1 XZ    0.553620  -0.142207   0.052808   0.000000   0.129019
   15  C  1 YZ    0.000000   0.000000   0.000000   0.538757   0.000000
   16  C  2  S   -0.007706   0.023771  -0.011940   0.000000   0.020300
   17  C  2  S   -0.213945   0.323049   0.167611   0.000000   0.349648
   18  C  2  X    0.016389   0.093096   0.181256   0.000000   0.140899
   19  C  2  Y    0.000000   0.000000   0.000000   0.050060   0.000000
   20  C  2  Z    0.019443   0.142018   0.134257   0.000000   0.076677
   21  C  2  S   -0.023488  -1.366851   0.376902   0.000000  -0.879797
   22  C  2  X    0.411943  -0.043551  -0.108137   0.000000  -0.263347
   23  C  2  Y    0.000000   0.000000   0.000000   0.382165   0.000000
[...]
   19  C  2  Y    0.000000   0.000000   0.000000   0.000000   0.000000
   20  C  2  Z    0.220355   0.423255  -0.039616   0.024938   0.162187
   21  C  2  S   -1.376441   0.088267  -1.988020   0.634657  -0.451651
   22  C  2  X   -0.590304  -0.862680  -0.902166   0.000645  -0.122773
   23  C  2  Y    0.000000   0.000000   0.000000   0.000000   0.000000
   24  C  2  Z    0.534501   1.620890  -0.263955  -0.004664  -0.165748
   25  C  2 XX   -0.538045  -0.719522   0.382097  -1.080190   0.369935
   26  C  2 YY    0.318575   0.038602   0.470197  -1.065455   0.513016
   27  C  2 ZZ    0.122255   0.633733  -0.525648  -0.967292   0.547777
   28  C  2 XY    0.000000   0.000000   0.000000   0.000000   0.000000
   29  C  2 XZ    0.420694   0.536679   0.742587  -0.009421   0.069834
   30  C  2 YZ    0.000000   0.000000   0.000000   0.000000   0.000000
   31  C  3  S   -0.048845   0.027613   0.025324  -0.180488  -0.308228
   32  C  3  S    0.115280  -0.207748  -0.176456   1.309441   2.007214
   33  C  3  X   -0.368434   0.316917   0.346888  -0.080535   0.018270
   34  C  3  Y    0.000000   0.000000   0.000000   0.000000   0.000000
   35  C  3  Z   -0.292590   0.305650   0.162539  -0.082223   0.037934
   36  C  3  S    1.480614  -1.343821  -1.113543   0.345202   0.977458
   37  C  3  X   -0.743674   0.912615   0.246882   0.037887   0.089957
   38  C  3  Y    0.000000   0.000000   0.000000   0.000000   0.000000
   39  C  3  Z   -0.376345   0.134920   0.619334   0.164568   0.060674
   40  C  3 XX    0.062009   0.038903  -0.550764  -0.697700  -1.217136
   41  C  3 YY   -0.405317   0.200556   0.182811  -0.699689  -1.193301
   42  C  3 ZZ    0.332675  -0.272623   0.365609  -0.705472  -1.249127
   43  C  3 XY    0.000000   0.000000   0.000000   0.000000   0.000000
   44  C  3 XZ    0.701800  -0.559740  -0.198988   0.048801  -0.047864
   45  C  3 YZ    0.000000   0.000000   0.000000   0.000000   0.000000
   46  C  4  S   -0.048845  -0.027613  -0.025324  -0.180488   0.308228
   47  C  4  S    0.115280   0.207748   0.176456   1.309441  -2.007214
   48  C  4  X   -0.368434  -0.316917  -0.346888  -0.080535  -0.018270
   49  C  4  Y    0.000000   0.000000   0.000000   0.000000   0.000000
   50  C  4  Z    0.292590   0.305650   0.162539   0.082223   0.037934
   51  C  4  S    1.480614   1.343821   1.113543   0.345202  -0.977458
   52  C  4  X   -0.743674  -0.912615  -0.246882   0.037887  -0.089957
   53  C  4  Y    0.000000   0.000000   0.000000   0.000000   0.000000
   54  C  4  Z    0.376345   0.134920   0.619334  -0.164568   0.060674
   55  C  4 XX    0.062009  -0.038903   0.550764  -0.697700   1.217136
   56  C  4 YY   -0.405317  -0.200556  -0.182811  -0.699689   1.193301
   57  C  4 ZZ    0.332675   0.272623  -0.365609  -0.705472   1.249127
   58  C  4 XY    0.000000   0.000000   0.000000   0.000000   0.000000
   59  C  4 XZ   -0.701800  -0.559740  -0.198988  -0.048801  -0.047864
   60  C  4 YZ    0.000000   0.000000   0.000000   0.000000   0.000000
   61  H  5  S    0.096263  -0.023896   0.297005   0.119707   0.049630
   62  H  5  S   -0.105219   0.023161   0.017892  -0.212726  -0.015855
   63  H  6  S    0.096263   0.023896  -0.297005   0.119707  -0.049630
   64  H  6  S   -0.105219  -0.023161  -0.017892  -0.212726   0.015855
   65  H  7  S    0.165659  -0.184474   0.217210   0.100505   0.110661
   66  H  7  S    0.000615  -0.219053   0.012160  -0.107483  -0.338228
   67  H  8  S    0.165659   0.184474  -0.217210   0.100505  -0.110661
   68  H  8  S    0.000615   0.219053  -0.012160  -0.107483   0.338228
   69  H  9  S   -0.178562   0.154032  -0.196068   0.068074   0.119688
   70  H  9  S    0.029727   0.013258  -0.058300  -0.209506  -0.281234
   71  H 10  S   -0.178562  -0.154032   0.196068   0.068074  -0.119688
   72  H 10  S    0.029727  -0.013258   0.058300  -0.209506   0.281234

                     71         72
                    4.6233     4.9028
                     A'         A'' 
    1  C  1  S    0.195535  -0.311415
    2  C  1  S   -1.123461   1.882467
    3  C  1  X    0.209518  -0.187398
    4  C  1  Y    0.000000   0.000000
    5  C  1  Z    0.167449   0.053273
    6  C  1  S   -0.986239   2.109436
    7  C  1  X   -0.164449   0.330470
    8  C  1  Y    0.000000   0.000000
    9  C  1  Z   -0.130403  -0.196843
   10  C  1 XX    0.905564  -1.314076
   11  C  1 YY    0.735983  -1.134173
   12  C  1 ZZ    0.743464  -1.626798
   13  C  1 XY    0.000000   0.000000
   14  C  1 XZ    0.144588  -0.224842
   15  C  1 YZ    0.000000   0.000000
   16  C  2  S    0.195535   0.311415
   17  C  2  S   -1.123461  -1.882467
   18  C  2  X    0.209518   0.187398
   19  C  2  Y    0.000000   0.000000
   20  C  2  Z   -0.167449   0.053273
   21  C  2  S   -0.986239  -2.109436
   22  C  2  X   -0.164449  -0.330470
   23  C  2  Y    0.000000   0.000000
   24  C  2  Z    0.130403  -0.196843
   25  C  2 XX    0.905564   1.314076
   26  C  2 YY    0.735983   1.134173
   27  C  2 ZZ    0.743464   1.626798
   28  C  2 XY    0.000000   0.000000
   29  C  2 XZ   -0.144588  -0.224842
   30  C  2 YZ    0.000000   0.000000
   31  C  3  S   -0.277417   0.129070
   32  C  3  S    1.716235  -0.720508
   33  C  3  X    0.168963  -0.225927
   34  C  3  Y    0.000000   0.000000
   35  C  3  Z    0.129586  -0.142411
   36  C  3  S    1.421285  -1.200330
   37  C  3  X   -0.091976   0.092384
   38  C  3  Y    0.000000   0.000000
   39  C  3  Z   -0.107200   0.200492
   40  C  3 XX   -1.228799   0.761009
   41  C  3 YY   -1.046399   0.437973
   42  C  3 ZZ   -1.148969   0.547907
   43  C  3 XY    0.000000   0.000000
   44  C  3 XZ   -0.147527   0.162670
   45  C  3 YZ    0.000000   0.000000
   46  C  4  S   -0.277417  -0.129070
   47  C  4  S    1.716235   0.720508
   48  C  4  X    0.168963   0.225927
   49  C  4  Y    0.000000   0.000000
   50  C  4  Z   -0.129586  -0.142411
   51  C  4  S    1.421285   1.200330
   52  C  4  X   -0.091976  -0.092384
   53  C  4  Y    0.000000   0.000000
   54  C  4  Z    0.107200   0.200492
   55  C  4 XX   -1.228799  -0.761009
   56  C  4 YY   -1.046399  -0.437973
   57  C  4 ZZ   -1.148969  -0.547907
   58  C  4 XY    0.000000   0.000000
   59  C  4 XZ    0.147527   0.162670
   60  C  4 YZ    0.000000   0.000000
   61  H  5  S   -0.065146   0.075865
   62  H  5  S    0.151280  -0.208854
   63  H  6  S   -0.065146  -0.075865
   64  H  6  S    0.151280   0.208854
   65  H  7  S    0.080527  -0.048166
   66  H  7  S   -0.258614   0.232911
   67  H  8  S    0.080527   0.048166
   68  H  8  S   -0.258614  -0.232911
   69  H  9  S    0.091314  -0.023218
   70  H  9  S   -0.252632   0.123267
   71  H 10  S    0.091314   0.023218
   72  H 10  S   -0.252632  -0.123267
 ...... END OF RHF CALCULATION ......
 CPU     0: STEP CPU TIME=     1.17 TOTAL CPU TIME=        1.4 (    0.0 MIN)
 TOTAL WALL CLOCK TIME=        1.4 SECONDS, CPU UTILIZATION IS 100.00%

     ----------------------------------------------------------------
     PROPERTY VALUES FOR THE RHF   SELF-CONSISTENT FIELD WAVEFUNCTION
     ----------------------------------------------------------------

          -----------------
          ENERGY COMPONENTS
          -----------------

         WAVEFUNCTION NORMALIZATION =       1.0000000000

                ONE ELECTRON ENERGY =    -414.5107620007
                TWO ELECTRON ENERGY =     155.0910314469
           NUCLEAR REPULSION ENERGY =     104.5079680865
                                      ------------------
                       TOTAL ENERGY =    -154.9117624674

 ELECTRON-ELECTRON POTENTIAL ENERGY =     155.0910314469
  NUCLEUS-ELECTRON POTENTIAL ENERGY =    -569.0961420099
   NUCLEUS-NUCLEUS POTENTIAL ENERGY =     104.5079680865
                                      ------------------
             TOTAL POTENTIAL ENERGY =    -309.4971424765
               TOTAL KINETIC ENERGY =     154.5853800092
                 VIRIAL RATIO (V/T) =       2.0021113410

  ...... PI ENERGY ANALYSIS ......

 ENERGY ANALYSIS:
            FOCK ENERGY=   -104.3286910383
          BARE H ENERGY=   -414.5107620007
     ELECTRONIC ENERGY =   -259.4197265195
         KINETIC ENERGY=    154.5853800092
          N-N REPULSION=    104.5079680865
           TOTAL ENERGY=   -154.9117584330
        SIGMA PART(1+2)=   -239.2805759374
               (K,V1,2)=    150.6407473279   -526.3707165806    136.4493933153
           PI PART(1+2)=    -20.1391505822
               (K,V1,2)=      3.9446326813    -42.7254254294     18.6416421659
  SIGMA SKELETON, ERROR=   -134.7726078509      0.0000000000
             MIXED PART= 0.00000E+00 0.00000E+00 0.00000E+00 0.00000E+00
 ...... END OF PI ENERGY ANALYSIS ......

          ---------------------------------------
          MULLIKEN AND LOWDIN POPULATION ANALYSES
          ---------------------------------------

     ATOMIC MULLIKEN POPULATION IN EACH MOLECULAR ORBITAL

                      1          2          3          4          5

                  2.000000   2.000000   2.000000   2.000000   2.000000

    1             0.992931   0.991657   0.008204   0.006805   0.600385
    2             0.992931   0.991657   0.008204   0.006805   0.600385
    3             0.006865   0.008217   0.991372   0.992805   0.330495
    4             0.006865   0.008217   0.991372   0.992805   0.330495
    5             0.000198   0.000128  -0.000003  -0.000001   0.034631
    6             0.000198   0.000128  -0.000003  -0.000001   0.034631
    7            -0.000004  -0.000006   0.000240   0.000183   0.019734
    8            -0.000004  -0.000006   0.000240   0.000183   0.019734
    9             0.000010   0.000005   0.000187   0.000208   0.014755
   10             0.000010   0.000005   0.000187   0.000208   0.014755

                      6          7          8          9         10

                  2.000000   2.000000   2.000000   2.000000   2.000000

    1             0.337781   0.392189   0.299814   0.367649   0.365110
    2             0.337781   0.392189   0.299814   0.367649   0.365110
    3             0.550293   0.366424   0.361985   0.305440   0.422857
    4             0.550293   0.366424   0.361985   0.305440   0.422857
    5             0.022998   0.061297   0.138080   0.142653   0.022676
    6             0.022998   0.061297   0.138080   0.142653   0.022676
    7             0.035065   0.095462   0.133125   0.048774   0.172784
    8             0.035065   0.095462   0.133125   0.048774   0.172784
    9             0.053863   0.084628   0.066995   0.135484   0.016573
   10             0.053863   0.084628   0.066995   0.135484   0.016573

                     11         12         13         14         15

                  2.000000   2.000000   2.000000   2.000000   2.000000

    1             0.136144   0.281869   0.383843   0.631562   0.359720
    2             0.136144   0.281869   0.383843   0.631562   0.359720
    3             0.494678   0.318475   0.231611   0.368438   0.640280
    4             0.494678   0.318475   0.231611   0.368438   0.640280
    5             0.055105   0.203301   0.132295   0.000000   0.000000
    6             0.055105   0.203301   0.132295   0.000000   0.000000
    7             0.049222   0.174293   0.093985   0.000000   0.000000
    8             0.049222   0.174293   0.093985   0.000000   0.000000
    9             0.264850   0.022062   0.158265   0.000000   0.000000
   10             0.264850   0.022062   0.158265   0.000000   0.000000

               ----- POPULATIONS IN EACH AO -----
                             MULLIKEN      LOWDIN
              1  C  1  S      1.99660     1.98004
              2  C  1  S      0.66799     0.35235
              3  C  1  X      0.73986     0.65668
              4  C  1  Y      0.51355     0.47262
              5  C  1  Z      0.71952     0.63925
              6  C  1  S      0.50228     0.30450
              7  C  1  X      0.28896     0.40137
              8  C  1  Y      0.46696     0.49487
              9  C  1  Z      0.20003     0.34911
             10  C  1 XX      0.02929     0.17994
             11  C  1 YY     -0.01864     0.10088
             12  C  1 ZZ      0.02349     0.17811
             13  C  1 XY      0.00469     0.00707
             14  C  1 XZ      0.01502     0.02797
             15  C  1 YZ      0.00609     0.01227
             16  C  2  S      1.99660     1.98004
             17  C  2  S      0.66799     0.35235
             18  C  2  X      0.73986     0.65668
             19  C  2  Y      0.51355     0.47262
             20  C  2  Z      0.71952     0.63925
             21  C  2  S      0.50228     0.30450
             22  C  2  X      0.28896     0.40137
             23  C  2  Y      0.46696     0.49487
             24  C  2  Z      0.20003     0.34911
             25  C  2 XX      0.02929     0.17994
             26  C  2 YY     -0.01864     0.10088
             27  C  2 ZZ      0.02349     0.17811
             28  C  2 XY      0.00469     0.00707
             29  C  2 XZ      0.01502     0.02797
             30  C  2 YZ      0.00609     0.01227
             31  C  3  S      1.99650     1.98126
             32  C  3  S      0.65889     0.35777
             33  C  3  X      0.73514     0.65540
             34  C  3  Y      0.51061     0.48130
             35  C  3  Z      0.72489     0.64612
             36  C  3  S      0.58923     0.33473
             37  C  3  X      0.28707     0.41172
             38  C  3  Y      0.49076     0.52100
             39  C  3  Z      0.33655     0.43540
             40  C  3 XX      0.03012     0.18563
             41  C  3 YY     -0.02020     0.10260
             42  C  3 ZZ      0.03222     0.18380
             43  C  3 XY      0.00479     0.00709
             44  C  3 XZ      0.01112     0.01820
             45  C  3 YZ      0.00256     0.00378
             46  C  4  S      1.99650     1.98126
             47  C  4  S      0.65889     0.35777
             48  C  4  X      0.73514     0.65540
             49  C  4  Y      0.51061     0.48130
             50  C  4  Z      0.72489     0.64612
             51  C  4  S      0.58923     0.33473
             52  C  4  X      0.28707     0.41172
             53  C  4  Y      0.49076     0.52100
             54  C  4  Z      0.33655     0.43540
             55  C  4 XX      0.03012     0.18563
             56  C  4 YY     -0.02020     0.10260
             57  C  4 ZZ      0.03222     0.18380
             58  C  4 XY      0.00479     0.00709
             59  C  4 XZ      0.01112     0.01820
             60  C  4 YZ      0.00256     0.00378
             61  H  5  S      0.52684     0.49227
             62  H  5  S      0.28653     0.34844
             63  H  6  S      0.52684     0.49227
             64  H  6  S      0.28653     0.34844
             65  H  7  S      0.52462     0.48473
             66  H  7  S      0.29823     0.35565
             67  H  8  S      0.52462     0.48473
             68  H  8  S      0.29823     0.35565
             69  H  9  S      0.52351     0.48445
             70  H  9  S      0.29437     0.35162
             71  H 10  S      0.52351     0.48445
             72  H 10  S      0.29437     0.35162

          ----- MULLIKEN ATOMIC OVERLAP POPULATIONS -----
          (OFF-DIAGONAL ELEMENTS NEED TO BE MULTIPLIED BY 2)

             1           2           3           4           5

    1    4.8839454
    2    0.3955352   4.8839454
    3    0.6473373  -0.0495256   5.0534300
    4   -0.0495256   0.6473373  -0.0135726   5.0534300
    5    0.3926492  -0.0385046  -0.0385931   0.0029429   0.4970111
    6   -0.0385046   0.3926492   0.0029429  -0.0385931  -0.0018351
    7   -0.0410348  -0.0027189   0.3934891   0.0011450   0.0030899
    8   -0.0027189  -0.0410348   0.0011450   0.3934891   0.0000254
    9   -0.0343049   0.0022844   0.3935333   0.0000480  -0.0033313
   10    0.0022844  -0.0343049   0.0000480   0.3935333  -0.0000931

             6           7           8           9          10

    6    0.4970111
    7    0.0000254   0.4949325
    8    0.0030899   0.0011006   0.4949325
    9   -0.0000931  -0.0271251  -0.0000465   0.4869181
   10   -0.0033313  -0.0000465  -0.0271251   0.0000016   0.4869181

          TOTAL MULLIKEN AND LOWDIN ATOMIC POPULATIONS
       ATOM         MULL.POP.    CHARGE          LOW.POP.     CHARGE
    1 CARBON        6.155663   -0.155663         6.157051   -0.157051
    2 CARBON        6.155663   -0.155663         6.157051   -0.157051
    3 CARBON        6.390234   -0.390234         6.325795   -0.325795
    4 CARBON        6.390234   -0.390234         6.325795   -0.325795
    5 HYDROGEN      0.813361    0.186639         0.840706    0.159294
    6 HYDROGEN      0.813361    0.186639         0.840706    0.159294
    7 HYDROGEN      0.822857    0.177143         0.840380    0.159620
    8 HYDROGEN      0.822857    0.177143         0.840380    0.159620
    9 HYDROGEN      0.817884    0.182116         0.836067    0.163933
   10 HYDROGEN      0.817884    0.182116         0.836067    0.163933

          -------------------------------
          BOND ORDER AND VALENCE ANALYSIS     BOND ORDER THRESHOLD=0.050
          -------------------------------

                   BOND                       BOND                       BOND
  ATOM PAIR DIST  ORDER      ATOM PAIR DIST  ORDER      ATOM PAIR DIST  ORDER
    1   2  1.471  1.051        1   3  1.344  1.917        1   5  1.089  0.950
    2   4  1.344  1.917        2   6  1.089  0.950        3   4  3.069  0.069
    3   7  1.086  0.952        3   9  1.085  0.954        4   8  1.086  0.952
    4  10  1.085  0.954

                       TOTAL       BONDED        FREE
      ATOM            VALENCE     VALENCE     VALENCE
    1 CARBON            3.864       3.864       0.000
    2 CARBON            3.864       3.864       0.000
    3 CARBON            3.868       3.868       0.000
    4 CARBON            3.868       3.868       0.000
    5 HYDROGEN          0.930       0.930       0.000
    6 HYDROGEN          0.930       0.930       0.000
    7 HYDROGEN          0.938       0.938       0.000
    8 HYDROGEN          0.938       0.938       0.000
    9 HYDROGEN          0.937       0.937       0.000
   10 HYDROGEN          0.937       0.937       0.000

          ---------------------
          ELECTROSTATIC MOMENTS
          ---------------------

 POINT   1           X           Y           Z (BOHR)    CHARGE
                 0.000000    0.000000    0.000000        0.00 (A.U.)
         DX          DY          DZ         /D/  (DEBYE)
    -0.060990    0.000000    0.000000    0.060990
 ...... END OF PROPERTY EVALUATION ......
 CPU     0: STEP CPU TIME=     0.03 TOTAL CPU TIME=        1.4 (    0.0 MIN)
 TOTAL WALL CLOCK TIME=        1.4 SECONDS, CPU UTILIZATION IS 100.00%
                   580000  WORDS OF DYNAMIC MEMORY USED
 EXECUTION OF GAMESS TERMINATED NORMALLY Thu Nov 16 14:24:09 2023
 DDI: 263624 bytes (0.3 MB / 0 MWords) used by master data server.

 ----------------------------------------
 CPU timing information for all processes
 ========================================
 0: 1.341608 + 0.062400 = 1.404008
 1: 0.873605 + 0.078000 = 0.951605
 2: 0.889205 + 0.031200 = 0.920405
 3: 0.483603 + 0.062400 = 0.546003
 4: 0.982806 + 0.062400 = 1.045206
 5: 0.046800 + 0.046800 = 0.093600
 6: 0.062400 + 0.031200 = 0.093600
 7: 0.015600 + 0.000000 = 0.015600
 ----------------------------------------
           Disk usage (in bytes)       
 ========================================
 ----------------------------------------
            Local date and time          
 ========================================
16.11.2023 - 14:24:15.53                          
