          ******************************************************
          *         GAMESS VERSION =  1 MAY 2013 (R1)          *
          *             FROM IOWA STATE UNIVERSITY             *
          * M.W.SCHMIDT, K.K.BALDRIDGE, J.A.BOATZ, S.T.ELBERT, *
          *   M.S.GORDON, J.H.JENSEN, S.KOSEKI, N.MATSUNAGA,   *
          *          K.A.NGUYEN, S.J.SU, T.L.WINDUS,           *
          *       TOGETHER WITH M.DUPUIS, J.A.MONTGOMERY       *
          *         J.COMPUT.CHEM.  14, 1347-1363(1993)        *
          *************** 64 BIT WINDOWS VERSION ***************

  SINCE 1993, STUDENTS AND POSTDOCS WORKING AT IOWA STATE UNIVERSITY
  AND ALSO IN THEIR VARIOUS JOBS AFTER LEAVING ISU HAVE MADE IMPORTANT
  CONTRIBUTIONS TO THE CODE:
     IVANA ADAMOVIC, CHRISTINE AIKENS, YURI ALEXEEV, POOJA ARORA,
     ANDREY ASADCHEV, ROB BELL, PRADIPTA BANDYOPADHYAY, JONATHAN BENTZ,
     BRETT BODE, GALINA CHABAN, WEI CHEN, CHEOL HO CHOI, PAUL DAY,
     ALBERT DEFUSCO, TIM DUDLEY, DMITRI FEDOROV, GRAHAM FLETCHER,
     MARK FREITAG, KURT GLAESEMANN, DAN KEMP, GRANT MERRILL,
     NORIYUKI MINEZAWA, JONATHAN MULLIN, TAKESHI NAGATA,
     SEAN NEDD, HEATHER NETZLOFF, BOSILJKA NJEGIC, RYAN OLSON, MIKE PAK,
     JIM SHOEMAKER, LYUDMILA SLIPCHENKO, SAROM SOK, JIE SONG,
     TETSUYA TAKETSUGU, SIMON WEBB, SOOHAENG YOO, FEDERICO ZAHARIEV

  ADDITIONAL CODE HAS BEEN PROVIDED BY COLLABORATORS IN OTHER GROUPS:
     IOWA STATE UNIVERSITY:
          JOE IVANIC, LAIMUTIS BYTAUTAS, KLAUS RUEDENBERG
     UNIVERSITY OF TOKYO: KIMIHIKO HIRAO, TAKAHITO NAKAJIMA,
          TAKAO TSUNEDA, MUNEAKI KAMIYA, SUSUMU YANAGISAWA,
          KIYOSHI YAGI, MAHITO CHIBA, SEIKEN TOKURA, NAOAKI KAWAKAMI
     UNIVERSITY OF AARHUS: FRANK JENSEN
     UNIVERSITY OF IOWA: VISVALDAS KAIRYS, HUI LI
     NATIONAL INST. OF STANDARDS AND TECHNOLOGY: WALT STEVENS, DAVID GARMER
     UNIVERSITY OF PISA: BENEDETTA MENNUCCI, JACOPO TOMASI
     UNIVERSITY OF MEMPHIS: HENRY KURTZ, PRAKASHAN KORAMBATH
     UNIVERSITY OF ALBERTA: TOBY ZENG, MARIUSZ KLOBUKOWSKI
     UNIVERSITY OF NEW ENGLAND: MARK SPACKMAN
     MIE UNIVERSITY: HIROAKI UMEDA
     MICHIGAN STATE UNIVERSITY:
          KAROL KOWALSKI, MARTA WLOCH, JEFFREY GOUR, JESSE LUTZ,
          WEI LI, PIOTR PIECUCH
     UNIVERSITY OF SILESIA: MONIKA MUSIAL, STANISLAW KUCHARSKI
     FACULTES UNIVERSITAIRES NOTRE-DAME DE LA PAIX:
          OLIVIER QUINET, BENOIT CHAMPAGNE
     UNIVERSITY OF CALIFORNIA - SANTA BARBARA: BERNARD KIRTMAN
     INSTITUTE FOR MOLECULAR SCIENCE:
          KAZUYA ISHIMURA, MICHIO KATOUDA, AND SHIGERU NAGASE
     UNIVERSITY OF NOTRE DAME: DAN CHIPMAN
     KYUSHU UNIVERSITY:
          HARUYUKI NAKANO,
          FENG LONG GU, JACEK KORCHOWIEC, MARCIN MAKOWSKI, AND YURIKO AOKI,
          HIROTOSHI MORI AND EISAKU MIYOSHI
     PENNSYLVANIA STATE UNIVERSITY:
          TZVETELIN IORDANOV, CHET SWALINA, JONATHAN SKONE,
          SHARON HAMMES-SCHIFFER
     WASEDA UNIVERSITY:
          MASATO KOBAYASHI, TOMOKO AKAMA, TSUGUKI TOUMA,
          TAKESHI YOSHIKAWA, YASUHIRO IKABATA, HIROMI NAKAI
     NANJING UNIVERSITY: SHUHUA LI
     UNIVERSITY OF NEBRASKA:
          PEIFENG SU, DEJUN SI, NANDUN THELLAMUREGE, YALI WANG, HUI LI
     UNIVERSITY OF ZURICH:
          ROBERTO PEVERATI, KIM BALDRIDGE
     N. COPERNICUS UNIVERSITY AND JACKSON STATE UNIVERSITY:
          MARIA BARYSZ


 PARALLEL VERSION RUNNING ON     4 PROCESSORS IN     4 NODES.

 EXECUTION OF GAMESS BEGUN Thu Nov 16 14:28:21 2023

            ECHO OF THE FIRST FEW INPUT CARDS -
 INPUT CARD> $CONTRL  scftyp=mcscf $END                                                     
 INPUT CARD> $basis gbasis=n31 ngauss=6 ndfunc=1 $end                                       
 INPUT CARD>                                                                                
 INPUT CARD>!!!Обратите внимание на перестановку МО!! В активное пространство включены 4 pi-
 INPUT CARD> $Guess guess=moread norb=20 norder=1 iorder(17)=19,17,18  prtmo=.t. $end       
 INPUT CARD>!!!Обратите внимание на перестановку МО!!                                       
 INPUT CARD>                                                                                
 INPUT CARD> $dEt group=cs  ncore=13 nact=4 neLs=4 SZ=0 nstate=1 $end                       
 INPUT CARD> $scf dirscf=.t. $end                                                           
 INPUT CARD> $DATA                                                                          
 INPUT CARD> C4H6                                                                           
 INPUT CARD>Cs                                                                              
 INPUT CARD>                                                                                
 INPUT CARD>CARBON      6.0     -0.557821218         0.000000000        -0.735585251        
 INPUT CARD>CARBON      6.0      0.522875525         0.000000000        -1.534457092        
 INPUT CARD>HYDROGEN    1.0     -1.539857539         0.000000000        -1.205481564        
 INPUT CARD>HYDROGEN    1.0      1.535769363         0.000000000        -1.143052878        
 INPUT CARD>HYDROGEN    1.0      0.420180565         0.000000000        -2.614099451        
 INPUT CARD> $END                                                                           
 INPUT CARD>--- CLOSED SHELL ORBITALS --- GENERATED AT Thu Nov 16 14:24:09 2023             
 INPUT CARD> C4H6                                                                           
 INPUT CARD>E(RHF)=     -154.9117624674, E(NUC)=  104.5079680865,   10 ITERS                
 INPUT CARD> $VEC                                                                           
 INPUT CARD> 1  1 7.01652392E-01 1.93580767E-02-1.67996419E-06 0.00000000E+00-7.07276613E-05
 INPUT CARD> 1  2-6.16773605E-03-4.21141977E-04 0.00000000E+00-5.22754404E-04-1.35739196E-03
 INPUT CARD> 1  3-1.77207394E-03-1.62535139E-03 0.00000000E+00 1.21915341E-04 0.00000000E+00
 INPUT CARD> 1  4 7.01652392E-01 1.93580767E-02-1.67996419E-06 0.00000000E+00 7.07276613E-05
 INPUT CARD> 1  5-6.16773605E-03-4.21141977E-04 0.00000000E+00 5.22754404E-04-1.35739196E-03
 INPUT CARD> 1  6-1.77207394E-03-1.62535139E-03 0.00000000E+00-1.21915341E-04 0.00000000E+00
 INPUT CARD> 1  7 5.58760102E-02 1.23995520E-03 9.38541774E-05 0.00000000E+00 1.26090759E-04
 INPUT CARD> 1  8 2.16814885E-03-6.86705316E-04 0.00000000E+00-1.01959636E-03-2.61000191E-04
 INPUT CARD> 1  9-2.27917382E-04-2.44621517E-04 0.00000000E+00 2.60163375E-05 0.00000000E+00
 INPUT CARD> 1 10 5.58760102E-02 1.23995520E-03 9.38541774E-05 0.00000000E+00-1.26090759E-04
 INPUT CARD> 1 11 2.16814885E-03-6.86705316E-04 0.00000000E+00 1.01959636E-03-2.61000191E-04
 INPUT CARD> 1 12-2.27917382E-04-2.44621517E-04 0.00000000E+00-2.60163375E-05 0.00000000E+00
 INPUT CARD> 1 13-1.49171416E-04 1.27565054E-03-1.49171416E-04 1.27565054E-03-1.06172842E-04
 INPUT CARD> 1 14-9.93299326E-05-1.06172842E-04-9.93299326E-05-1.31747419E-05 2.89446528E-04
 INPUT CARD> 1 15-1.31747419E-05 2.89446528E-04                                             
 INPUT CARD> 2  1 7.01465184E-01 1.93047945E-02 6.62212274E-05 0.00000000E+00-2.65073094E-04
 INPUT CARD> 2  2-1.19251366E-02-1.37584071E-03 0.00000000E+00 1.69510070E-03-1.01356729E-03
 INPUT CARD> 2  3-1.53411568E-03-6.15376033E-04 0.00000000E+00 2.81087449E-04 0.00000000E+00
 INPUT CARD> 2  4-7.01465184E-01-1.93047945E-02-6.62212274E-05 0.00000000E+00-2.65073094E-04
 INPUT CARD> 2  5 1.19251366E-02 1.37584071E-03 0.00000000E+00 1.69510070E-03 1.01356729E-03
 INPUT CARD> 2  6 1.53411568E-03 6.15376033E-04 0.00000000E+00 2.81087449E-04 0.00000000E+00
 INPUT CARD> 2  7 6.14831027E-02 1.54254054E-03 1.25565500E-04 0.00000000E+00 4.05906916E-05
 INPUT CARD> 2  8 2.98344197E-03-7.41495126E-04 0.00000000E+00-1.20534615E-03-4.49884046E-04
 INPUT CARD> 2  9-1.61329954E-04-2.94975078E-04 0.00000000E+00-2.91426283E-05 0.00000000E+00
 INPUT CARD> 2 10-6.14831027E-02-1.54254054E-03-1.25565500E-04 0.00000000E+00 4.05906916E-05
 INPUT CARD> 2 11-2.98344197E-03 7.41495126E-04 0.00000000E+00-1.20534615E-03 4.49884046E-04
 INPUT CARD> 2 12 1.61329954E-04 2.94975078E-04 0.00000000E+00-2.91426283E-05 0.00000000E+00
    1000000 WORDS OF MEMORY AVAILABLE

     BASIS OPTIONS
     -------------
     GBASIS=N31          IGAUSS=       6      POLAR=POPN31  
     NDFUNC=       1     NFFUNC=       0     DIFFSP=       F
     NPFUNC=       0      DIFFS=       F     BASNAM=        


     RUN TITLE
     ---------
  C4H6                                                                           

 THE POINT GROUP OF THE MOLECULE IS CS      
 THE ORDER OF THE PRINCIPAL AXIS IS     0

 ATOM      ATOMIC                      COORDINATES (BOHR)
           CHARGE         X                   Y                   Z
 CARBON      6.0    -1.0541292522        0.0000000000        1.3900545650
 CARBON      6.0    -1.0541292522        0.0000000000       -1.3900545650
 CARBON      6.0     0.9880914679        0.0000000000        2.8997034438
 CARBON      6.0     0.9880914679        0.0000000000       -2.8997034438
 HYDROGEN    1.0    -2.9099088088        0.0000000000        2.2780298392
 HYDROGEN    1.0    -2.9099088088        0.0000000000       -2.2780298392
 HYDROGEN    1.0     2.9021832764        0.0000000000        2.1600567289
 HYDROGEN    1.0     2.9021832764        0.0000000000       -2.1600567289
 HYDROGEN    1.0     0.7940261332        0.0000000000        4.9399316670
 HYDROGEN    1.0     0.7940261332        0.0000000000       -4.9399316670

          INTERNUCLEAR DISTANCES (ANGS.)
          ------------------------------

                1 CARB       2 CARB       3 CARB       4 CARB       5 HYDR  

   1 CARB    0.0000000    1.4711705 *  1.3439128 *  2.5141594 *  1.0886679 *
   2 CARB    1.4711705 *  0.0000000    2.5141594 *  1.3439128 *  2.1753473 *
   3 CARB    1.3439128 *  2.5141594 *  0.0000000    3.0689142    2.0888017 *
   4 CARB    2.5141594 *  1.3439128 *  3.0689142    0.0000000    3.4295964  
   5 HYDR    1.0886679 *  2.1753473 *  2.0888017 *  3.4295964    0.0000000  
   6 HYDR    2.1753473 *  1.0886679 *  3.4295964    2.0888017 *  2.4109631 *
   7 HYDR    2.1328740 *  2.8128993 *  1.0858873 *  2.8626934 *  3.0762604  
   8 HYDR    2.8128993 *  2.1328740 *  2.8626934 *  1.0858873 *  3.8697668  
   9 HYDR    2.1178534 *  3.4895379    1.0845155 *  4.1498274    2.4137012 *
  10 HYDR    3.4895379    2.1178534 *  4.1498274    1.0845155 *  4.2931281  

                6 HYDR       7 HYDR       8 HYDR       9 HYDR      10 HYDR  

   1 CARB    2.1753473 *  2.1328740 *  2.8128993 *  2.1178534 *  3.4895379  
   2 CARB    1.0886679 *  2.8128993 *  2.1328740 *  3.4895379    2.1178534 *
   3 CARB    3.4295964    1.0858873 *  2.8626934 *  1.0845155 *  4.1498274  
   4 CARB    2.0888017 *  2.8626934 *  1.0858873 *  4.1498274    1.0845155 *
   5 HYDR    2.4109631 *  3.0762604    3.8697668    2.4137012 *  4.2931281  
   6 HYDR    0.0000000    3.8697668    3.0762604    4.2931281    2.4137012 *
   7 HYDR    3.8697668    0.0000000    2.2861058 *  1.8462168 *  3.9192770  
   8 HYDR    3.0762604    2.2861058 *  0.0000000    3.9192770    1.8462168 *
   9 HYDR    4.2931281    1.8462168 *  3.9192770    0.0000000    5.2281989  
  10 HYDR    2.4137012 *  3.9192770    1.8462168 *  5.2281989    0.0000000  

  * ... LESS THAN  3.000


     ATOMIC BASIS SET
     ----------------
 THE CONTRACTED PRIMITIVE FUNCTIONS HAVE BEEN UNNORMALIZED
 THE CONTRACTED BASIS FUNCTIONS ARE NOW NORMALIZED TO UNITY

  SHELL TYPE  PRIMITIVE        EXPONENT          CONTRACTION COEFFICIENT(S)

 CARBON    

      5   S       1          3047.5248800    0.001834737132
      5   S       2           457.3695180    0.014037322813
      5   S       3           103.9486850    0.068842622264
      5   S       4            29.2101553    0.232184443216
      5   S       5             9.2866630    0.467941348435
      5   S       6             3.1639270    0.362311985337

      6   L       7             7.8682723   -0.119332419775    0.068999066591
      6   L       8             1.8812885   -0.160854151696    0.316423960957
      6   L       9             0.5442493    1.143456437840    0.744308290898

      7   L      10             0.1687145    1.000000000000    1.000000000000

      8   D      11             0.8000000    1.000000000000

 CARBON    

     13   S      12          3047.5248800    0.001834737132
     13   S      13           457.3695180    0.014037322813
     13   S      14           103.9486850    0.068842622264
     13   S      15            29.2101553    0.232184443216
     13   S      16             9.2866630    0.467941348435
     13   S      17             3.1639270    0.362311985337

     14   L      18             7.8682723   -0.119332419775    0.068999066591
     14   L      19             1.8812885   -0.160854151696    0.316423960957
     14   L      20             0.5442493    1.143456437840    0.744308290898

     15   L      21             0.1687145    1.000000000000    1.000000000000

     16   D      22             0.8000000    1.000000000000

 HYDROGEN  

     19   S      23            18.7311370    0.033494604338
     19   S      24             2.8253944    0.234726953484
     19   S      25             0.6401217    0.813757326146

     20   S      26             0.1612778    1.000000000000

 HYDROGEN  

     23   S      27            18.7311370    0.033494604338
     23   S      28             2.8253944    0.234726953484
     23   S      29             0.6401217    0.813757326146

     24   S      30             0.1612778    1.000000000000

 HYDROGEN  

     27   S      31            18.7311370    0.033494604338
     27   S      32             2.8253944    0.234726953484
     27   S      33             0.6401217    0.813757326146

     28   S      34             0.1612778    1.000000000000

 TOTAL NUMBER OF BASIS SET SHELLS             =   28
 NUMBER OF CARTESIAN GAUSSIAN BASIS FUNCTIONS =   72
 NUMBER OF ELECTRONS                          =   30
 CHARGE OF MOLECULE                           =    0
 SPIN MULTIPLICITY                            =    1
 NUMBER OF OCCUPIED ORBITALS (ALPHA)          =   15
 NUMBER OF OCCUPIED ORBITALS (BETA )          =   15
 TOTAL NUMBER OF ATOMS                        =   10
 THE NUCLEAR REPULSION ENERGY IS      104.5079680865

     $NEO OPTIONS
     ------------
     NUNIQN=       0     BASNUC=DZSNB        NEOSCF=NONE    
     NEOCI =NONE         NUMULT=       2     NUCST =       1
     NAUXNB=       0     VNUCEX=       F     NUCOPT=       F
     NTAUXB=       0     NEOHSS=       F     HSSINI=READH   
     HSSUPD=POWELLUP     DIRNUC=       F     SYMNUC=       F
     QMTOLN= 0.0E+00     USRDEX=       F
     POSNEO=       F     POSPRP=       F
     NEONCI=       F     LOCORB=       0

     $CONTRL OPTIONS
     ---------------
 SCFTYP=MCSCF        RUNTYP=ENERGY       EXETYP=RUN     
 MPLEVL=       0     CITYP =NONE         CCTYP =NONE         VBTYP =NONE    
 DFTTYP=NONE         TDDFT =NONE    
 MULT  =       1     ICHARG=       0     NZVAR =       0     COORD =UNIQUE  
 PP    =NONE         RELWFN=NONE         LOCAL =NONE         NUMGRD=       F
 ISPHER=      -1     NOSYM =       0     MAXIT =      30     UNITS =ANGS    
 PLTORB=       F     MOLPLT=       F     AIMPAC=       F     FRIEND=        
 NPRINT=       7     IREST =       0     GEOM  =INPUT   
 NORMF =       0     NORMP =       0     ITOL  =      20     ICUT  =       9
 INTTYP=BEST         GRDTYP=BEST         QMTTOL= 1.0E-06

     $SYSTEM OPTIONS
     ---------------
  REPLICATED MEMORY=     1000000 WORDS (ON EVERY NODE).
 DISTRIBUTED MEMDDI=           0 MILLION WORDS IN AGGREGATE,
 MEMDDI DISTRIBUTED OVER   4 PROCESSORS IS           0 WORDS/PROCESSOR.
 TOTAL MEMORY REQUESTED ON EACH PROCESSOR=     1000000 WORDS.
 TIMLIM=      525600.00 MINUTES, OR     365.0 DAYS.
 PARALL= T  BALTYP=  DLB     KDIAG=    0  COREFL= F
 MXSEQ2=     300 MXSEQ3=     150

          ----------------
          PROPERTIES INPUT
          ----------------

     MOMENTS            FIELD           POTENTIAL          DENSITY
 IEMOM =       1   IEFLD =       0   IEPOT =       0   IEDEN =       0
 WHERE =COMASS     WHERE =NUCLEI     WHERE =NUCLEI     WHERE =NUCLEI  
 OUTPUT=BOTH       OUTPUT=BOTH       OUTPUT=BOTH       OUTPUT=BOTH    
 IEMINT=       0   IEFINT=       0                     IEDINT=       0
                                                       MORB  =       0

     -------------------------------
     INTEGRAL TRANSFORMATION OPTIONS
     -------------------------------
     NWORD  =            0
     CUTOFF = 1.0E-09     MPTRAN =       0
     DIRTRF =       F     AOINTS =DUP     

          ----------------------
          MCSCF INPUT PARAMETERS
          ----------------------
 CONVERGER SELECTION: FOCAS = F  SOSCF = T  FULLNR = F  QUD = F  JACOBI = F
 SECULAR EQUATION METHOD CISTEP = ALDET   
 --- GENERAL INPUT OPTIONS:
 MAXIT =      60  MICIT =       5  ACURCY= 1.000E-05
 DAMP  =   0.000  CANONC=       T  ENGTOL= 1.000E-10
 EKT   =       F  NPUNCH=       2  NWORD =         0
 REGENERATE CI AFTER CONVERGENCE = NONE    
 DIABATIZATION AFTER CONVERGENCE =        F
 --- INPUT FOR SOSCF CONVERGER:
 FORS  =       T  NOFO  =       1

          ----------------------
          INTEGRAL INPUT OPTIONS
          ----------------------
 NOPK  =       1 NORDER=       0 SCHWRZ=       T

     ------------------------------------------
     THE POINT GROUP IS CS , NAXIS= 0, ORDER= 2
     ------------------------------------------

     DIMENSIONS OF THE SYMMETRY SUBSPACES ARE
 A'  =   36     A'' =   36

 ..... DONE SETTING UP THE RUN .....
 CPU     0: STEP CPU TIME=     0.48 TOTAL CPU TIME=        0.5 (    0.0 MIN)
 TOTAL WALL CLOCK TIME=        0.5 SECONDS, CPU UTILIZATION IS 100.00%

          ********************
          1 ELECTRON INTEGRALS
          ********************
 TIME TO DO   DIPOLE INTEGRALS=      0.02
 ...... END OF ONE-ELECTRON INTEGRALS ......
 CPU     0: STEP CPU TIME=     0.02 TOTAL CPU TIME=        0.5 (    0.0 MIN)
 TOTAL WALL CLOCK TIME=        0.5 SECONDS, CPU UTILIZATION IS 100.00%

          -------------
          GUESS OPTIONS
          -------------
          GUESS =MOREAD            NORB  =      20          NORDER=       1
          MIX   =       F          PRTMO =       T          PUNMO =       F
          TOLZ  = 1.0E-08          TOLE  = 1.0E-05
          SYMDEN=       F          PURIFY=       F

 INITIAL GUESS ORBITALS GENERATED BY MOREAD   ROUTINE.
 EIGENVALUES ARE DIAGONAL OF 1E- H IN MO BASIS

 SYMMETRIES FOR INITIAL GUESS ORBITALS FOLLOW.   BOTH SET(S).
    15 ORBITALS ARE OCCUPIED (    4 CORE ORBITALS).
     1=A'       2=A''      3=A''      4=A'       5=A'       6=A''      7=A'  
     8=A''      9=A'      10=A'      11=A''     12=A''     13=A'      14=A'  
    15=A''     16=A'      17=A''     18=A'      19=A'      20=A''     21=A'  
    22=A'      23=A'      24=A'      25=A'      26=A'      27=A'      28=A'  
    29=A'      30=A'      31=A'      32=A'      33=A'      34=A'      35=A'  
    36=A'      37=A'      38=A'      39=A'      40=A'      41=A'      42=A'  
    43=A'      44=A'      45=A'      46=A''     47=A''     48=A''     49=A'' 
    50=A''     51=A''     52=A''     53=A''     54=A''     55=A''     56=A'' 
    57=A''     58=A''     59=A''     60=A''     61=A''     62=A''     63=A'' 
    64=A''     65=A''     66=A''     67=A''     68=A''     69=A''     70=A'' 
    71=A''     72=A'' 

                              ----------------------
                              INITIAL GUESS ORBITALS
                              ----------------------

                      1          2          3          4          5
                  -25.2730   -25.2725   -24.2921   -24.2907   -11.1927
                     A'         A''        A''        A'         A'  
    1  C  1  S    0.701652   0.701465  -0.061943  -0.056319  -0.131021
    2  C  1  S    0.019358   0.019305  -0.001839  -0.001822   0.251492
    3  C  1  X   -0.000002   0.000066  -0.000123  -0.000163   0.045667
    4  C  1  Y    0.000000   0.000000   0.000000   0.000000   0.000000
    5  C  1  Z   -0.000071  -0.000265  -0.000091  -0.000070  -0.025073
    6  C  1  S   -0.006168  -0.011925   0.004094   0.003177   0.170993
    7  C  1  X   -0.000421  -0.001376   0.001240   0.000962  -0.000775
    8  C  1  Y    0.000000   0.000000   0.000000   0.000000   0.000000
    9  C  1  Z   -0.000523   0.001695   0.000613   0.000735  -0.005573
   10  C  1 XX   -0.001357  -0.001014  -0.000130  -0.000086   0.006842
   11  C  1 YY   -0.001772  -0.001534   0.000101   0.000068  -0.011107
   12  C  1 ZZ   -0.001625  -0.000615  -0.000232  -0.000034   0.012931
   13  C  1 XY    0.000000   0.000000   0.000000   0.000000   0.000000
   14  C  1 XZ    0.000122   0.000281  -0.000029  -0.000049   0.002803
   15  C  1 YZ    0.000000   0.000000   0.000000   0.000000   0.000000
   16  C  2  S    0.701652  -0.701465   0.061943  -0.056319  -0.131021
   17  C  2  S    0.019358  -0.019305   0.001839  -0.001822   0.251492
   18  C  2  X   -0.000002  -0.000066   0.000123  -0.000163   0.045667
   19  C  2  Y    0.000000   0.000000   0.000000   0.000000   0.000000
   20  C  2  Z    0.000071  -0.000265  -0.000091   0.000070   0.025073
   21  C  2  S   -0.006168   0.011925  -0.004094   0.003177   0.170993
   22  C  2  X   -0.000421   0.001376  -0.001240   0.000962  -0.000775
   23  C  2  Y    0.000000   0.000000   0.000000   0.000000   0.000000
   24  C  2  Z    0.000523   0.001695   0.000613  -0.000735   0.005573
   25  C  2 XX   -0.001357   0.001014   0.000130  -0.000086   0.006842
   26  C  2 YY   -0.001772   0.001534  -0.000101   0.000068  -0.011107
   27  C  2 ZZ   -0.001625   0.000615   0.000232  -0.000034   0.012931
   28  C  2 XY    0.000000   0.000000   0.000000   0.000000   0.000000
   29  C  2 XZ   -0.000122   0.000281  -0.000029   0.000049  -0.002803
   30  C  2 YZ    0.000000   0.000000   0.000000   0.000000   0.000000
   31  C  3  S    0.055876   0.061483   0.701329   0.701781  -0.091157
   32  C  3  S    0.001240   0.001543   0.019356   0.019330   0.172183
   33  C  3  X    0.000094   0.000126  -0.000001  -0.000038  -0.056052
   34  C  3  Y    0.000000   0.000000   0.000000   0.000000   0.000000
   35  C  3  Z    0.000126   0.000041  -0.000057   0.000009  -0.051422
   36  C  3  S    0.002168   0.002983  -0.008800  -0.008135   0.128759
   37  C  3  X   -0.000687  -0.000741   0.000335   0.000497  -0.005580
   38  C  3  Y    0.000000   0.000000   0.000000   0.000000   0.000000
   39  C  3  Z   -0.001020  -0.001205   0.000610   0.000212  -0.006542
   40  C  3 XX   -0.000261  -0.000450  -0.001190  -0.001219   0.007323
   41  C  3 YY   -0.000228  -0.000161  -0.001735  -0.001795  -0.007525
   42  C  3 ZZ   -0.000245  -0.000295  -0.001270  -0.001339   0.005632
   43  C  3 XY    0.000000   0.000000   0.000000   0.000000   0.000000
   44  C  3 XZ    0.000026  -0.000029   0.000158   0.000156   0.005574
   45  C  3 YZ    0.000000   0.000000   0.000000   0.000000   0.000000
   46  C  4  S    0.055876  -0.061483  -0.701329   0.701781  -0.091157
   47  C  4  S    0.001240  -0.001543  -0.019356   0.019330   0.172183
   48  C  4  X    0.000094  -0.000126   0.000001  -0.000038  -0.056052
   49  C  4  Y    0.000000   0.000000   0.000000   0.000000   0.000000
   50  C  4  Z   -0.000126   0.000041  -0.000057  -0.000009   0.051422
   51  C  4  S    0.002168  -0.002983   0.008800  -0.008135   0.128759
   52  C  4  X   -0.000687   0.000741  -0.000335   0.000497  -0.005580
   53  C  4  Y    0.000000   0.000000   0.000000   0.000000   0.000000
   54  C  4  Z    0.001020  -0.001205   0.000610  -0.000212   0.006542
   55  C  4 XX   -0.000261   0.000450   0.001190  -0.001219   0.007323
   56  C  4 YY   -0.000228   0.000161   0.001735  -0.001795  -0.007525
   57  C  4 ZZ   -0.000245   0.000295   0.001270  -0.001339   0.005632
   58  C  4 XY    0.000000   0.000000   0.000000   0.000000   0.000000
   59  C  4 XZ   -0.000026  -0.000029   0.000158  -0.000156  -0.005574
   60  C  4 YZ    0.000000   0.000000   0.000000   0.000000   0.000000
   61  H  5  S   -0.000149  -0.000064  -0.000023  -0.000022   0.063311
   62  H  5  S    0.001276   0.001077  -0.000199  -0.000052   0.009282
   63  H  6  S   -0.000149   0.000064   0.000023  -0.000022   0.063311
   64  H  6  S    0.001276  -0.001077   0.000199  -0.000052   0.009282
   65  H  7  S   -0.000106  -0.000080  -0.000083  -0.000115   0.045840
   66  H  7  S   -0.000099  -0.000181   0.001803   0.001339   0.008549
   67  H  8  S   -0.000106   0.000080   0.000083  -0.000115   0.045840
   68  H  8  S   -0.000099   0.000181  -0.001803   0.001339   0.008549
   69  H  9  S   -0.000013  -0.000037  -0.000105  -0.000091   0.040929
   70  H  9  S    0.000289   0.000135   0.001393   0.001534   0.006304
   71  H 10  S   -0.000013   0.000037   0.000105  -0.000091   0.040929
   72  H 10  S    0.000289  -0.000135  -0.001393   0.001534   0.006304

                      6          7          8          9         10
                  -10.6457    -9.9158    -9.3230    -9.5857   -10.1265
                     A''        A'         A''        A'         A'  
    1  C  1  S    0.089070   0.073652  -0.085283   0.006620   0.010912
    2  C  1  S   -0.172552  -0.146348   0.169704  -0.017431  -0.021600
    3  C  1  X   -0.065295   0.127346  -0.073892  -0.182397  -0.205735
    4  C  1  Y    0.000000   0.000000   0.000000   0.000000   0.000000
    5  C  1  Z   -0.110315   0.137788   0.102308   0.177065  -0.200737
    6  C  1  S   -0.127670  -0.131360   0.163419  -0.006292  -0.007201
    7  C  1  X    0.010532   0.044098  -0.070902  -0.070156  -0.082112
    8  C  1  Y    0.000000   0.000000   0.000000   0.000000   0.000000
    9  C  1  Z   -0.024302   0.034041   0.027571   0.059752  -0.065629
   10  C  1 XX   -0.011220  -0.001788   0.012989   0.008900   0.000230
   11  C  1 YY    0.005927   0.006800  -0.006039  -0.000532  -0.000187
   12  C  1 ZZ    0.004443  -0.013265  -0.003937  -0.004433   0.005673
   13  C  1 XY    0.000000   0.000000   0.000000   0.000000   0.000000
   14  C  1 XZ   -0.006940   0.007339  -0.008088  -0.002839  -0.007553
   15  C  1 YZ    0.000000   0.000000   0.000000   0.000000   0.000000
   16  C  2  S   -0.089070   0.073652   0.085283   0.006620   0.010912
   17  C  2  S    0.172552  -0.146348  -0.169704  -0.017431  -0.021600
   18  C  2  X    0.065295   0.127346   0.073892  -0.182397  -0.205735
   19  C  2  Y    0.000000   0.000000   0.000000   0.000000   0.000000
   20  C  2  Z   -0.110315  -0.137788   0.102308  -0.177065   0.200737
   21  C  2  S    0.127670  -0.131360  -0.163419  -0.006292  -0.007201
   22  C  2  X   -0.010532   0.044098   0.070902  -0.070156  -0.082112
   23  C  2  Y    0.000000   0.000000   0.000000   0.000000   0.000000
   24  C  2  Z   -0.024302  -0.034041   0.027571  -0.059752   0.065629
   25  C  2 XX    0.011220  -0.001788  -0.012989   0.008900   0.000230
   26  C  2 YY   -0.005927   0.006800   0.006039  -0.000532  -0.000187
   27  C  2 ZZ   -0.004443  -0.013265   0.003937  -0.004433   0.005673
   28  C  2 XY    0.000000   0.000000   0.000000   0.000000   0.000000
   29  C  2 XZ   -0.006940  -0.007339  -0.008088   0.002839   0.007553
   30  C  2 YZ    0.000000   0.000000   0.000000   0.000000   0.000000
   31  C  3  S    0.126058  -0.102931   0.060801  -0.010477   0.001413
   32  C  3  S   -0.238874   0.199299  -0.118615   0.019151  -0.006962
   33  C  3  X    0.060398   0.054111  -0.183075  -0.079827   0.281582
   34  C  3  Y    0.000000   0.000000   0.000000   0.000000   0.000000
   35  C  3  Z    0.029854   0.040865  -0.080949   0.206239   0.094494
   36  C  3  S   -0.208846   0.184704  -0.117411   0.033628   0.030671
   37  C  3  X    0.002375   0.023439  -0.071405  -0.035556   0.111024
   38  C  3  Y    0.000000   0.000000   0.000000   0.000000   0.000000
   39  C  3  Z    0.005932   0.019804  -0.043763   0.082148   0.020748
   40  C  3 XX   -0.010745   0.008474  -0.004168  -0.005411   0.006645
   41  C  3 YY    0.010431  -0.008969   0.005797  -0.001098  -0.001586
   42  C  3 ZZ   -0.008053   0.010579  -0.011326   0.008691   0.003796
   43  C  3 XY    0.000000   0.000000   0.000000   0.000000   0.000000
   44  C  3 XZ   -0.003885  -0.006580   0.013149  -0.001561  -0.017191
   45  C  3 YZ    0.000000   0.000000   0.000000   0.000000   0.000000
   46  C  4  S   -0.126058  -0.102931  -0.060801  -0.010477   0.001413
   47  C  4  S    0.238874   0.199299   0.118615   0.019151  -0.006962
   48  C  4  X   -0.060398   0.054111   0.183075  -0.079827   0.281582
   49  C  4  Y    0.000000   0.000000   0.000000   0.000000   0.000000
   50  C  4  Z    0.029854  -0.040865  -0.080949  -0.206239  -0.094494
   51  C  4  S    0.208846   0.184704   0.117411   0.033628   0.030671
   52  C  4  X   -0.002375   0.023439   0.071405  -0.035556   0.111024
   53  C  4  Y    0.000000   0.000000   0.000000   0.000000   0.000000
   54  C  4  Z    0.005932  -0.019804  -0.043763  -0.082148  -0.020748
   55  C  4 XX    0.010745   0.008474   0.004168  -0.005411   0.006645
   56  C  4 YY   -0.010431  -0.008969  -0.005797  -0.001098  -0.001586
   57  C  4 ZZ    0.008053   0.010579   0.011326   0.008691   0.003796
   58  C  4 XY    0.000000   0.000000   0.000000   0.000000   0.000000
   59  C  4 XZ   -0.003885   0.006580   0.013149   0.001561   0.017191
   60  C  4 YZ    0.000000   0.000000   0.000000   0.000000   0.000000
   61  H  5  S   -0.055091  -0.085385   0.135778   0.129638   0.051279
   62  H  5  S   -0.006453  -0.033206   0.061030   0.088865   0.038765
   63  H  6  S    0.055091  -0.085385  -0.135778   0.129638   0.051279
   64  H  6  S    0.006453  -0.033206  -0.061030   0.088865   0.038765
   65  H  7  S   -0.067681   0.102654  -0.128957  -0.075763   0.143640
   66  H  7  S   -0.009515   0.045955  -0.071080  -0.050646   0.107684
   67  H  8  S    0.067681   0.102654   0.128957  -0.075763   0.143640
   68  H  8  S    0.009515   0.045955   0.071080  -0.050646   0.107684
   69  H  9  S   -0.077385   0.099638  -0.091404   0.129153   0.041653
   70  H  9  S   -0.020214   0.039963  -0.046538   0.082975   0.037157
   71  H 10  S    0.077385   0.099638   0.091404   0.129153   0.041653
   72  H 10  S    0.020214   0.039963   0.046538   0.082975   0.037157

                     11         12         13         14         15
                   -9.2390    -9.2957    -9.4126    -9.8667    -9.5237
                     A''        A''        A'         A'         A'' 
    1  C  1  S    0.017961  -0.011507  -0.014156   0.000000   0.000000
    2  C  1  S   -0.040316   0.020545   0.033381   0.000000   0.000000
    3  C  1  X   -0.176499  -0.244488   0.089183   0.000000   0.000000
    4  C  1  Y    0.000000   0.000000   0.000000   0.294754   0.236256
    5  C  1  Z   -0.003740  -0.017825  -0.283059   0.000000   0.000000
    6  C  1  S   -0.012517   0.045250   0.037468   0.000000   0.000000
    7  C  1  X   -0.057725  -0.140085   0.066331   0.000000   0.000000
    8  C  1  Y    0.000000   0.000000   0.000000   0.207139   0.217755
    9  C  1  Z   -0.013700   0.029199  -0.138518   0.000000   0.000000
   10  C  1 XX   -0.002745   0.015804  -0.023565   0.000000   0.000000
   11  C  1 YY   -0.000257  -0.001685  -0.000085   0.000000   0.000000
   12  C  1 ZZ    0.009137  -0.007270   0.020579   0.000000   0.000000
   13  C  1 XY    0.000000   0.000000   0.000000   0.012430   0.014914
   14  C  1 XZ   -0.012631  -0.024007   0.006162   0.000000   0.000000
   15  C  1 YZ    0.000000   0.000000   0.000000  -0.001817   0.020068
   16  C  2  S   -0.017961   0.011507  -0.014156   0.000000   0.000000
   17  C  2  S    0.040316  -0.020545   0.033381   0.000000   0.000000
   18  C  2  X    0.176499   0.244488   0.089183   0.000000   0.000000
   19  C  2  Y    0.000000   0.000000   0.000000   0.294754  -0.236256
   20  C  2  Z   -0.003740  -0.017825   0.283059   0.000000   0.000000
   21  C  2  S    0.012517  -0.045250   0.037468   0.000000   0.000000
   22  C  2  X    0.057725   0.140085   0.066331   0.000000   0.000000
   23  C  2  Y    0.000000   0.000000   0.000000   0.207139  -0.217755
   24  C  2  Z   -0.013700   0.029199   0.138518   0.000000   0.000000
   25  C  2 XX    0.002745  -0.015804  -0.023565   0.000000   0.000000
   26  C  2 YY    0.000257   0.001685  -0.000085   0.000000   0.000000
   27  C  2 ZZ   -0.009137   0.007270   0.020579   0.000000   0.000000
   28  C  2 XY    0.000000   0.000000   0.000000   0.012430  -0.014914
   29  C  2 XZ   -0.012631  -0.024007  -0.006162   0.000000   0.000000
   30  C  2 YZ    0.000000   0.000000   0.000000   0.001817   0.020068
   31  C  3  S    0.010716   0.016174   0.002891   0.000000   0.000000
   32  C  3  S   -0.022243  -0.034616  -0.005674   0.000000   0.000000
   33  C  3  X   -0.022651   0.257920  -0.062048   0.000000   0.000000
   34  C  3  Y    0.000000   0.000000   0.000000   0.220985   0.306728
   35  C  3  Z    0.306108  -0.032778   0.199496   0.000000   0.000000
   36  C  3  S   -0.019072  -0.021843  -0.003200   0.000000   0.000000
   37  C  3  X   -0.028176   0.133182  -0.043644   0.000000   0.000000
   38  C  3  Y    0.000000   0.000000   0.000000   0.169114   0.268491
   39  C  3  Z    0.145427  -0.044368   0.124911   0.000000   0.000000
   40  C  3 XX   -0.013612   0.017525  -0.021305   0.000000   0.000000
   41  C  3 YY   -0.000179   0.000094  -0.000002   0.000000   0.000000
   42  C  3 ZZ    0.019137  -0.011089   0.023580   0.000000   0.000000
   43  C  3 XY    0.000000   0.000000   0.000000  -0.014010  -0.014141
   44  C  3 XZ   -0.004783  -0.013551   0.004640   0.000000   0.000000
   45  C  3 YZ    0.000000   0.000000   0.000000  -0.011198  -0.009000
   46  C  4  S   -0.010716  -0.016174   0.002891   0.000000   0.000000
   47  C  4  S    0.022243   0.034616  -0.005674   0.000000   0.000000
   48  C  4  X    0.022651  -0.257920  -0.062048   0.000000   0.000000
   49  C  4  Y    0.000000   0.000000   0.000000   0.220985  -0.306728
   50  C  4  Z    0.306108  -0.032778  -0.199496   0.000000   0.000000
   51  C  4  S    0.019072   0.021843  -0.003200   0.000000   0.000000
   52  C  4  X    0.028176  -0.133182  -0.043644   0.000000   0.000000
   53  C  4  Y    0.000000   0.000000   0.000000   0.169114  -0.268491
   54  C  4  Z    0.145427  -0.044368  -0.124911   0.000000   0.000000
   55  C  4 XX    0.013612  -0.017525  -0.021305   0.000000   0.000000
   56  C  4 YY    0.000179  -0.000094  -0.000002   0.000000   0.000000
   57  C  4 ZZ   -0.019137   0.011089   0.023580   0.000000   0.000000
   58  C  4 XY    0.000000   0.000000   0.000000  -0.014010   0.014141
   59  C  4 XZ   -0.004783  -0.013551  -0.004640   0.000000   0.000000
   60  C  4 YZ    0.000000   0.000000   0.000000   0.011198  -0.009000
   61  H  5  S    0.080918   0.168570  -0.132528   0.000000   0.000000
   62  H  5  S    0.071598   0.135458  -0.118165   0.000000   0.000000
   63  H  6  S   -0.080918  -0.168570  -0.132528   0.000000   0.000000
   64  H  6  S   -0.071598  -0.135458  -0.118165   0.000000   0.000000
   65  H  7  S   -0.087603   0.155795  -0.109271   0.000000   0.000000
   66  H  7  S   -0.053419   0.128742  -0.101221   0.000000   0.000000
   67  H  8  S    0.087603  -0.155795  -0.109271   0.000000   0.000000
   68  H  8  S    0.053419  -0.128742  -0.101221   0.000000   0.000000
   69  H  9  S    0.184103  -0.059502   0.148198   0.000000   0.000000
   70  H  9  S    0.139020  -0.040046   0.125119   0.000000   0.000000
   71  H 10  S   -0.184103   0.059502   0.148198   0.000000   0.000000
   72  H 10  S   -0.139020   0.040046   0.125119   0.000000   0.000000

                     16         17         18         19         20
                   -8.8877    -8.8235    -6.8181    -6.7742    -6.3207
                     A'         A''        A'         A'         A'' 
    1  C  1  S    0.000000   0.000000   0.040942  -0.036413   0.020450
    2  C  1  S    0.000000   0.000000  -0.040574   0.042152   0.001438
    3  C  1  X    0.000000   0.000000   0.139413  -0.067064   0.120649
    4  C  1  Y   -0.217449   0.321162   0.000000   0.000000   0.000000
    5  C  1  Z    0.000000   0.000000  -0.060143   0.039645  -0.068768
    6  C  1  S    0.000000   0.000000  -0.826001   0.509603  -0.622797
    7  C  1  X    0.000000   0.000000   0.378670  -0.122549   0.590595
    8  C  1  Y   -0.362992   0.774203   0.000000   0.000000   0.000000
    9  C  1  Z    0.000000   0.000000  -0.240676   0.156976   0.171862
   10  C  1 XX    0.000000   0.000000   0.006650  -0.011606   0.009844
   11  C  1 YY    0.000000   0.000000   0.002778  -0.003284   0.003559
   12  C  1 ZZ    0.000000   0.000000  -0.002738   0.009829  -0.010394
   13  C  1 XY    0.017491  -0.011384   0.000000   0.000000   0.000000
   14  C  1 XZ    0.000000   0.000000  -0.017124   0.003113   0.004277
   15  C  1 YZ    0.022645   0.013383   0.000000   0.000000   0.000000
   16  C  2  S    0.000000   0.000000   0.040942  -0.036413  -0.020450
   17  C  2  S    0.000000   0.000000  -0.040574   0.042152  -0.001438
   18  C  2  X    0.000000   0.000000   0.139413  -0.067064  -0.120649
   19  C  2  Y   -0.217449  -0.321162   0.000000   0.000000   0.000000
   20  C  2  Z    0.000000   0.000000   0.060143  -0.039645  -0.068768
   21  C  2  S    0.000000   0.000000  -0.826001   0.509603   0.622797
   22  C  2  X    0.000000   0.000000   0.378670  -0.122549  -0.590595
   23  C  2  Y   -0.362992  -0.774203   0.000000   0.000000   0.000000
   24  C  2  Z    0.000000   0.000000   0.240676  -0.156976   0.171862
   25  C  2 XX    0.000000   0.000000   0.006650  -0.011606  -0.009844
   26  C  2 YY    0.000000   0.000000   0.002778  -0.003284  -0.003559
   27  C  2 ZZ    0.000000   0.000000  -0.002738   0.009829   0.010394
   28  C  2 XY    0.017491   0.011384   0.000000   0.000000   0.000000
   29  C  2 XZ    0.000000   0.000000   0.017124  -0.003113   0.004277
   30  C  2 YZ   -0.022645   0.013383   0.000000   0.000000   0.000000
   31  C  3  S    0.000000   0.000000   0.055725   0.067749   0.050290
   32  C  3  S    0.000000   0.000000  -0.077178  -0.071470  -0.027309
   33  C  3  X    0.000000   0.000000  -0.025294  -0.151616   0.009641
   34  C  3  Y    0.276586  -0.194946   0.000000   0.000000   0.000000
   35  C  3  Z    0.000000   0.000000  -0.083973   0.051425  -0.205093
   36  C  3  S    0.000000   0.000000  -0.757412  -1.113452  -1.211502
   37  C  3  X    0.000000   0.000000  -0.264001  -0.520241   0.146389
   38  C  3  Y    0.505802  -0.553594   0.000000   0.000000   0.000000
   39  C  3  Z    0.000000   0.000000  -0.355818   0.164949  -0.641844
   40  C  3 XX    0.000000   0.000000  -0.010181   0.003931  -0.002727
   41  C  3 YY    0.000000   0.000000   0.001262   0.006088   0.006066
   42  C  3 ZZ    0.000000   0.000000   0.016816  -0.001358   0.004630
   43  C  3 XY    0.009326  -0.023755   0.000000   0.000000   0.000000
   44  C  3 XZ    0.000000   0.000000  -0.001444  -0.003107  -0.001329
   45  C  3 YZ    0.008169  -0.012769   0.000000   0.000000   0.000000
   46  C  4  S    0.000000   0.000000   0.055725   0.067749  -0.050290
   47  C  4  S    0.000000   0.000000  -0.077178  -0.071470   0.027309
   48  C  4  X    0.000000   0.000000  -0.025294  -0.151616  -0.009641
   49  C  4  Y    0.276586   0.194946   0.000000   0.000000   0.000000
   50  C  4  Z    0.000000   0.000000   0.083973  -0.051425  -0.205093
   51  C  4  S    0.000000   0.000000  -0.757412  -1.113452   1.211502
   52  C  4  X    0.000000   0.000000  -0.264001  -0.520241  -0.146389
   53  C  4  Y    0.505802   0.553594   0.000000   0.000000   0.000000
   54  C  4  Z    0.000000   0.000000   0.355818  -0.164949  -0.641844
   55  C  4 XX    0.000000   0.000000  -0.010181   0.003931   0.002727
   56  C  4 YY    0.000000   0.000000   0.001262   0.006088  -0.006066
   57  C  4 ZZ    0.000000   0.000000   0.016816  -0.001358  -0.004630
   58  C  4 XY    0.009326   0.023755   0.000000   0.000000   0.000000
   59  C  4 XZ    0.000000   0.000000   0.001444   0.003107  -0.001329
   60  C  4 YZ   -0.008169  -0.012769   0.000000   0.000000   0.000000
   61  H  5  S    0.000000   0.000000   0.029673  -0.028837   0.001399
   62  H  5  S    0.000000   0.000000   0.994980  -0.635001   0.833299
   63  H  6  S    0.000000   0.000000   0.029673  -0.028837  -0.001399
   64  H  6  S    0.000000   0.000000   0.994980  -0.635001  -0.833299
   65  H  7  S    0.000000   0.000000  -0.017785   0.023080   0.009655
   66  H  7  S    0.000000   0.000000   0.334538   1.226546   0.006308
   67  H  8  S    0.000000   0.000000  -0.017785   0.023080  -0.009655
   68  H  8  S    0.000000   0.000000   0.334538   1.226546  -0.006308
   69  H  9  S    0.000000   0.000000   0.043013   0.009009   0.008925
   70  H  9  S    0.000000   0.000000   0.873817   0.207864   1.388233
   71  H 10  S    0.000000   0.000000   0.043013   0.009009  -0.008925
   72  H 10  S    0.000000   0.000000   0.873817   0.207864  -1.388233

                     21         22         23         24         25
                   -5.7925    -6.3336    -5.8013    -7.6721    -7.8000
                     A'         A'         A'         A'         A'  
    1  C  1  S    0.113910   0.007148   0.017114  -0.311822  -0.079211
    2  C  1  S    0.384923   0.027734  -0.383249   2.125621   1.011160
    3  C  1  X   -0.025471   0.322709   0.182174  -0.010848  -0.033135
    4  C  1  Y    0.000000   0.000000   0.000000   0.000000   0.000000
    5  C  1  Z    0.074425  -0.378193   0.078697  -0.127108   0.060892
    6  C  1  S   -4.944783   0.607170   0.752437   0.611721  -0.697426
    7  C  1  X   -1.342436  -2.029810   0.336628  -0.043752  -0.158643
    8  C  1  Y    0.000000   0.000000   0.000000   0.000000   0.000000
    9  C  1  Z   -1.969168   1.460170   0.243448  -0.048567  -0.196299
   10  C  1 XX    0.071130  -0.035599   0.258179  -1.292284  -0.363464
   11  C  1 YY    0.400145   0.025653   0.000785  -1.201623  -0.253469
   12  C  1 ZZ    0.205132   0.018019   0.138668  -1.150915  -0.306753
   13  C  1 XY    0.000000   0.000000   0.000000   0.000000   0.000000
   14  C  1 XZ   -0.166454  -0.114657   0.142301  -0.080892   0.003340
   15  C  1 YZ    0.000000   0.000000   0.000000   0.000000   0.000000
   16  C  2  S    0.113910   0.007148   0.017114  -0.311822  -0.079211
   17  C  2  S    0.384923   0.027734  -0.383249   2.125621   1.011160
   18  C  2  X   -0.025471   0.322709   0.182174  -0.010848  -0.033135
   19  C  2  Y    0.000000   0.000000   0.000000   0.000000   0.000000
   20  C  2  Z   -0.074425   0.378193  -0.078697   0.127108  -0.060892
   21  C  2  S   -4.944783   0.607170   0.752437   0.611721  -0.697426
   22  C  2  X   -1.342436  -2.029810   0.336628  -0.043752  -0.158643
   23  C  2  Y    0.000000   0.000000   0.000000   0.000000   0.000000
   24  C  2  Z    1.969168  -1.460170  -0.243448   0.048567   0.196299
   25  C  2 XX    0.071130  -0.035599   0.258179  -1.292284  -0.363464
   26  C  2 YY    0.400145   0.025653   0.000785  -1.201623  -0.253469
   27  C  2 ZZ    0.205132   0.018019   0.138668  -1.150915  -0.306753
   28  C  2 XY    0.000000   0.000000   0.000000   0.000000   0.000000
   29  C  2 XZ    0.166454   0.114657  -0.142301   0.080892  -0.003340
   30  C  2 YZ    0.000000   0.000000   0.000000   0.000000   0.000000
   31  C  3  S   -0.129255  -0.039873  -0.274454   0.020131  -0.152531
   32  C  3  S   -0.421098  -0.162000   1.539913  -0.442849   1.936225
   33  C  3  X    0.015845  -0.231836  -0.043647  -0.152732   0.114487
   34  C  3  Y    0.000000   0.000000   0.000000   0.000000   0.000000
   35  C  3  Z   -0.097346   0.257868  -0.070096  -0.228521   0.161017
   36  C  3  S    4.984779   1.173073   1.133869   0.553888  -0.958319
   37  C  3  X   -2.305893   1.224039   0.602020  -0.003230  -0.451540
   38  C  3  Y    0.000000   0.000000   0.000000   0.000000   0.000000
   39  C  3  Z   -0.605093  -2.563860   0.750699   0.414129  -0.683971
   40  C  3 XX   -0.150639  -0.076465  -1.245140   0.160627  -0.573298
   41  C  3 YY   -0.441003  -0.188839  -1.121732   0.004321  -0.466659
   42  C  3 ZZ   -0.211439  -0.080391  -1.139726   0.162099  -0.636593
   43  C  3 XY    0.000000   0.000000   0.000000   0.000000   0.000000
   44  C  3 XZ    0.165433   0.051561  -0.166018   0.087042   0.063472
   45  C  3 YZ    0.000000   0.000000   0.000000   0.000000   0.000000
   46  C  4  S   -0.129255  -0.039873  -0.274454   0.020131  -0.152531
   47  C  4  S   -0.421098  -0.162000   1.539913  -0.442849   1.936225
   48  C  4  X    0.015845  -0.231836  -0.043647  -0.152732   0.114487
   49  C  4  Y    0.000000   0.000000   0.000000   0.000000   0.000000
   50  C  4  Z    0.097346  -0.257868   0.070096   0.228521  -0.161017
   51  C  4  S    4.984779   1.173073   1.133869   0.553888  -0.958319
   52  C  4  X   -2.305893   1.224039   0.602020  -0.003230  -0.451540
   53  C  4  Y    0.000000   0.000000   0.000000   0.000000   0.000000
   54  C  4  Z    0.605093   2.563860  -0.750699  -0.414129   0.683971
   55  C  4 XX   -0.150639  -0.076465  -1.245140   0.160627  -0.573298
   56  C  4 YY   -0.441003  -0.188839  -1.121732   0.004321  -0.466659
   57  C  4 ZZ   -0.211439  -0.080391  -1.139726   0.162099  -0.636593
   58  C  4 XY    0.000000   0.000000   0.000000   0.000000   0.000000
   59  C  4 XZ   -0.165433  -0.051561   0.166018  -0.087042  -0.063472
   60  C  4 YZ    0.000000   0.000000   0.000000   0.000000   0.000000
   61  H  5  S    0.181934  -0.175336  -0.027187   0.163532   0.021952
   62  H  5  S    0.294851  -1.627303   0.091467  -0.230909   0.044598
   63  H  6  S    0.181934  -0.175336  -0.027187   0.163532   0.021952
   64  H  6  S    0.294851  -1.627303   0.091467  -0.230909   0.044598
   65  H  7  S    0.002154  -0.176989   0.097257  -0.008529   0.070472
   66  H  7  S    0.249555  -1.409264  -0.400634  -0.008994   0.262074
   67  H  8  S    0.002154  -0.176989   0.097257  -0.008529   0.070472
   68  H  8  S    0.249555  -1.409264  -0.400634  -0.008994   0.262074
   69  H  9  S   -0.166664   0.150894   0.201302   0.028531  -0.057118
   70  H  9  S   -0.607685   1.478819  -0.956793  -0.483513   0.883361
   71  H 10  S   -0.166664   0.150894   0.201302   0.028531  -0.057118
   72  H 10  S   -0.607685   1.478819  -0.956793  -0.483513   0.883361

                     26         27         28         29         30
                   -7.4878    -6.5324    -9.1997    -8.1323    -6.6413
                     A'         A'         A'         A'         A'  
    1  C  1  S    0.010788   0.030488  -0.012504   0.000000  -0.035034
    2  C  1  S    0.704923   0.302976   0.348292   0.000000  -0.093631
    3  C  1  X   -0.338418   0.134571   0.648660   0.000000  -0.235776
    4  C  1  Y    0.000000   0.000000   0.000000   0.477652   0.000000
    5  C  1  Z    0.063818  -0.400012   0.421682   0.000000  -0.185119
    6  C  1  S   -0.666766  -0.254530  -0.016407   0.000000   0.125436
    7  C  1  X    0.839651  -0.158783  -0.007814   0.000000   0.353578
    8  C  1  Y    0.000000   0.000000   0.000000  -0.643314   0.000000
    9  C  1  Z    0.238454   0.792682  -0.030239   0.000000   0.364957
   10  C  1 XX    0.085665   0.379253   0.380583   0.000000   0.077535
   11  C  1 YY    0.153332   0.115111  -0.159645   0.000000  -0.224921
   12  C  1 ZZ    0.064682  -0.099430   0.153252   0.000000  -0.081007
   13  C  1 XY    0.000000   0.000000   0.000000  -0.136032   0.000000
   14  C  1 XZ    0.119685  -0.003729   0.478896   0.000000   0.178180
   15  C  1 YZ    0.000000   0.000000   0.000000  -0.103838   0.000000
   16  C  2  S    0.010788   0.030488  -0.012504   0.000000  -0.035034
   17  C  2  S    0.704923   0.302976   0.348292   0.000000  -0.093631
   18  C  2  X   -0.338418   0.134571   0.648660   0.000000  -0.235776
   19  C  2  Y    0.000000   0.000000   0.000000   0.477652   0.000000
   20  C  2  Z   -0.063818   0.400012  -0.421682   0.000000   0.185119
   21  C  2  S   -0.666766  -0.254530  -0.016407   0.000000   0.125436
   22  C  2  X    0.839651  -0.158783  -0.007814   0.000000   0.353578
   23  C  2  Y    0.000000   0.000000   0.000000  -0.643314   0.000000
   24  C  2  Z   -0.238454  -0.792682   0.030239   0.000000  -0.364957
   25  C  2 XX    0.085665   0.379253   0.380583   0.000000   0.077535
   26  C  2 YY    0.153332   0.115111  -0.159645   0.000000  -0.224921
   27  C  2 ZZ    0.064682  -0.099430   0.153252   0.000000  -0.081007
   28  C  2 XY    0.000000   0.000000   0.000000  -0.136032   0.000000
   29  C  2 XZ   -0.119685   0.003729  -0.478896   0.000000  -0.178180
   30  C  2 YZ    0.000000   0.000000   0.000000   0.103838   0.000000
   31  C  3  S    0.025188  -0.004386   0.019579   0.000000  -0.008548
   32  C  3  S   -0.289376   0.000136  -0.303578   0.000000  -0.195224
   33  C  3  X   -0.344921   0.276394   0.578927   0.000000   0.219850
   34  C  3  Y    0.000000   0.000000   0.000000  -0.589634   0.000000
   35  C  3  Z    0.246141  -0.037783   0.438437   0.000000   0.251997
   36  C  3  S    0.015954  -0.099755  -0.013596   0.000000   0.054357
   37  C  3  X    1.126098  -0.006073   0.018410   0.000000  -0.614413
   38  C  3  Y    0.000000   0.000000   0.000000   0.809105   0.000000
   39  C  3  Z   -0.220700  -0.164622   0.089754   0.000000  -0.292512
   40  C  3 XX    0.036029   0.190963  -0.460758   0.000000  -0.239124
   41  C  3 YY    0.054615   0.070866   0.204810   0.000000   0.038320
   42  C  3 ZZ   -0.057232  -0.213029  -0.032047   0.000000  -0.096133
   43  C  3 XY    0.000000   0.000000   0.000000  -0.121407   0.000000
   44  C  3 XZ   -0.131683  -0.107816  -0.529162   0.000000   0.304760
   45  C  3 YZ    0.000000   0.000000   0.000000  -0.097713   0.000000
   46  C  4  S    0.025188  -0.004386   0.019579   0.000000  -0.008548
   47  C  4  S   -0.289376   0.000136  -0.303578   0.000000  -0.195224
   48  C  4  X   -0.344921   0.276394   0.578927   0.000000   0.219850
   49  C  4  Y    0.000000   0.000000   0.000000  -0.589634   0.000000
   50  C  4  Z   -0.246141   0.037783  -0.438437   0.000000  -0.251997
   51  C  4  S    0.015954  -0.099755  -0.013596   0.000000   0.054357
   52  C  4  X    1.126098  -0.006073   0.018410   0.000000  -0.614413
   53  C  4  Y    0.000000   0.000000   0.000000   0.809105   0.000000
   54  C  4  Z    0.220700   0.164622  -0.089754   0.000000   0.292512
   55  C  4 XX    0.036029   0.190963  -0.460758   0.000000  -0.239124
   56  C  4 YY    0.054615   0.070866   0.204810   0.000000   0.038320
   57  C  4 ZZ   -0.057232  -0.213029  -0.032047   0.000000  -0.096133
   58  C  4 XY    0.000000   0.000000   0.000000  -0.121407   0.000000
   59  C  4 XZ    0.131683   0.107816   0.529162   0.000000  -0.304760
   60  C  4 YZ    0.000000   0.000000   0.000000   0.097713   0.000000
   61  H  5  S   -0.286228  -0.330915   0.162504   0.000000  -0.070949
   62  H  5  S    1.097984   0.238902  -0.111696   0.000000   0.063700
   63  H  6  S   -0.286228  -0.330915   0.162504   0.000000  -0.070949
   64  H  6  S    1.097984   0.238902  -0.111696   0.000000   0.063700
   65  H  7  S    0.095069  -0.516553  -0.028848   0.000000   0.627459
   66  H  7  S   -0.840529   0.460935   0.010654   0.000000  -0.209034
   67  H  8  S    0.095069  -0.516553  -0.028848   0.000000   0.627459
   68  H  8  S   -0.840529   0.460935   0.010654   0.000000  -0.209034
   69  H  9  S   -0.010000   0.540534  -0.218645   0.000000   0.137754
   70  H  9  S    0.178631  -0.596766   0.113642   0.000000  -0.067340
   71  H 10  S   -0.010000   0.540534  -0.218645   0.000000   0.137754
   72  H 10  S    0.178631  -0.596766   0.113642   0.000000  -0.067340

                     31         32         33         34         35
                   -6.9319    -6.7670    -7.4763    -8.0394    -8.5551
                     A'         A'         A'         A'         A'  
    1  C  1  S   -0.034456   0.029551   0.039482   0.015181   0.000000
    2  C  1  S   -0.088406  -0.012095   0.144351   0.086755   0.000000
    3  C  1  X    0.066364   0.039793   0.260907   0.095307   0.000000
    4  C  1  Y    0.000000   0.000000   0.000000   0.000000   0.621378
    5  C  1  Z    0.388231  -0.193062  -0.074964  -0.232657   0.000000
    6  C  1  S    0.097645  -0.127312  -0.227064  -0.057278   0.000000
    7  C  1  X   -0.094991   0.367568  -0.278645  -0.026005   0.000000
    8  C  1  Y    0.000000   0.000000   0.000000   0.000000  -0.428797
    9  C  1  Z   -0.489240   0.069080   0.111746  -0.017054   0.000000
   10  C  1 XX    0.017389  -0.224565  -0.119463   0.532817   0.000000
   11  C  1 YY   -0.248456   0.294032   0.258320   0.054121   0.000000
   12  C  1 ZZ    0.029819  -0.009272   0.170401  -0.417430   0.000000
   13  C  1 XY    0.000000   0.000000   0.000000   0.000000   0.053205
   14  C  1 XZ   -0.042965   0.294936  -0.072769  -0.149732   0.000000
   15  C  1 YZ    0.000000   0.000000   0.000000   0.000000   0.063910
   16  C  2  S   -0.034456   0.029551   0.039482   0.015181   0.000000
   17  C  2  S   -0.088406  -0.012095   0.144351   0.086755   0.000000
   18  C  2  X    0.066364   0.039793   0.260907   0.095307   0.000000
   19  C  2  Y    0.000000   0.000000   0.000000   0.000000   0.621378
   20  C  2  Z   -0.388231   0.193062   0.074964   0.232657   0.000000
   21  C  2  S    0.097645  -0.127312  -0.227064  -0.057278   0.000000
   22  C  2  X   -0.094991   0.367568  -0.278645  -0.026005   0.000000
   23  C  2  Y    0.000000   0.000000   0.000000   0.000000  -0.428797
   24  C  2  Z    0.489240  -0.069080  -0.111746   0.017054   0.000000
   25  C  2 XX    0.017389  -0.224565  -0.119463   0.532817   0.000000
   26  C  2 YY   -0.248456   0.294032   0.258320   0.054121   0.000000
   27  C  2 ZZ    0.029819  -0.009272   0.170401  -0.417430   0.000000
   28  C  2 XY    0.000000   0.000000   0.000000   0.000000   0.053205
   29  C  2 XZ    0.042965  -0.294936   0.072769   0.149732   0.000000
   30  C  2 YZ    0.000000   0.000000   0.000000   0.000000  -0.063910
   31  C  3  S    0.045477  -0.007757   0.045379   0.005673   0.000000
   32  C  3  S   -0.048773  -0.044046   0.072410  -0.006151   0.000000
   33  C  3  X   -0.009844   0.054226  -0.276177  -0.198641   0.000000
   34  C  3  Y    0.000000   0.000000   0.000000   0.000000   0.418275
   35  C  3  Z   -0.035313  -0.027269  -0.166403  -0.034967   0.000000
   36  C  3  S   -0.084638  -0.026034  -0.204854  -0.018755   0.000000
   37  C  3  X    0.042175   0.032579   0.129781  -0.027618   0.000000
   38  C  3  Y    0.000000   0.000000   0.000000   0.000000  -0.341791
   39  C  3  Z   -0.225649  -0.095958   0.138957   0.265183   0.000000
   40  C  3 XX    0.209843   0.199062  -0.412141   0.247163   0.000000
   41  C  3 YY    0.327906  -0.071000   0.368646   0.099608   0.000000
   42  C  3 ZZ   -0.525270  -0.223670   0.259299  -0.347278   0.000000
   43  C  3 XY    0.000000   0.000000   0.000000   0.000000   0.155401
   44  C  3 XZ   -0.029351  -0.020369   0.093770  -0.115291   0.000000
   45  C  3 YZ    0.000000   0.000000   0.000000   0.000000   0.091566
   46  C  4  S    0.045477  -0.007757   0.045379   0.005673   0.000000
   47  C  4  S   -0.048773  -0.044046   0.072410  -0.006151   0.000000
   48  C  4  X   -0.009844   0.054226  -0.276177  -0.198641   0.000000
   49  C  4  Y    0.000000   0.000000   0.000000   0.000000   0.418275
   50  C  4  Z    0.035313   0.027269   0.166403   0.034967   0.000000
   51  C  4  S   -0.084638  -0.026034  -0.204854  -0.018755   0.000000
   52  C  4  X    0.042175   0.032579   0.129781  -0.027618   0.000000
   53  C  4  Y    0.000000   0.000000   0.000000   0.000000  -0.341791
   54  C  4  Z    0.225649   0.095958  -0.138957  -0.265183   0.000000
   55  C  4 XX    0.209843   0.199062  -0.412141   0.247163   0.000000
   56  C  4 YY    0.327906  -0.071000   0.368646   0.099608   0.000000
   57  C  4 ZZ   -0.525270  -0.223670   0.259299  -0.347278   0.000000
   58  C  4 XY    0.000000   0.000000   0.000000   0.000000   0.155401
   59  C  4 XZ    0.029351   0.020369  -0.093770   0.115291   0.000000
   60  C  4 YZ    0.000000   0.000000   0.000000   0.000000  -0.091566
   61  H  5  S   -0.112400   0.886485   0.161547   0.055182   0.000000
   62  H  5  S    0.009630  -0.273578  -0.063456  -0.153215   0.000000
   63  H  6  S   -0.112400   0.886485   0.161547   0.055182   0.000000
   64  H  6  S    0.009630  -0.273578  -0.063456  -0.153215   0.000000
   65  H  7  S    0.080919  -0.143379   0.535515   0.271883   0.000000
   66  H  7  S   -0.119117  -0.054033  -0.076827  -0.128433   0.000000
   67  H  8  S    0.080919  -0.143379   0.535515   0.271883   0.000000
   68  H  8  S   -0.119117  -0.054033  -0.076827  -0.128433   0.000000
   69  H  9  S    0.725871   0.243994   0.255788  -0.158277   0.000000
   70  H  9  S   -0.121201  -0.022701  -0.260553   0.172109   0.000000
   71  H 10  S    0.725871   0.243994   0.255788  -0.158277   0.000000
   72  H 10  S   -0.121201  -0.022701  -0.260553   0.172109   0.000000

                     36         37         38         39         40
                   -8.1355    -8.4664    -8.5758    -8.0702    -9.1268
                     A'         A'         A'         A'         A'  
    1  C  1  S    0.000000   0.004195   0.013656   0.017245  -0.020685
    2  C  1  S    0.000000   0.124029   0.026524  -0.101465   0.001181
    3  C  1  X    0.000000  -0.245768  -0.282940  -0.025018  -0.084456
    4  C  1  Y    0.089117   0.000000   0.000000   0.000000   0.000000
    5  C  1  Z    0.000000   0.052837   0.059121  -0.148138   0.130534
    6  C  1  S    0.000000  -0.051008  -0.066876   0.026884   0.112079
    7  C  1  X    0.000000   0.079376   0.164831  -0.000467   0.058038
    8  C  1  Y    0.118070   0.000000   0.000000   0.000000   0.000000
    9  C  1  Z    0.000000   0.117828  -0.068703   0.028373  -0.077969
   10  C  1 XX    0.000000   0.046368   0.326681  -0.082656  -0.091807
   11  C  1 YY    0.000000   0.009941  -0.256404  -0.146800   0.476390
   12  C  1 ZZ    0.000000   0.195434  -0.022473   0.033585  -0.396328
   13  C  1 XY    0.480506   0.000000   0.000000   0.000000   0.000000
   14  C  1 XZ    0.000000   0.005033  -0.174449   0.115650  -0.048401
   15  C  1 YZ    0.316597   0.000000   0.000000   0.000000   0.000000
   16  C  2  S    0.000000   0.004195   0.013656   0.017245  -0.020685
   17  C  2  S    0.000000   0.124029   0.026524  -0.101465   0.001181
   18  C  2  X    0.000000  -0.245768  -0.282940  -0.025018  -0.084456
   19  C  2  Y    0.089117   0.000000   0.000000   0.000000   0.000000
   20  C  2  Z    0.000000  -0.052837  -0.059121   0.148138  -0.130534
   21  C  2  S    0.000000  -0.051008  -0.066876   0.026884   0.112079
   22  C  2  X    0.000000   0.079376   0.164831  -0.000467   0.058038
   23  C  2  Y    0.118070   0.000000   0.000000   0.000000   0.000000
   24  C  2  Z    0.000000  -0.117828   0.068703  -0.028373   0.077969
   25  C  2 XX    0.000000   0.046368   0.326681  -0.082656  -0.091807
   26  C  2 YY    0.000000   0.009941  -0.256404  -0.146800   0.476390
   27  C  2 ZZ    0.000000   0.195434  -0.022473   0.033585  -0.396328
   28  C  2 XY    0.480506   0.000000   0.000000   0.000000   0.000000
   29  C  2 XZ    0.000000  -0.005033   0.174449  -0.115650   0.048401
   30  C  2 YZ   -0.316597   0.000000   0.000000   0.000000   0.000000
   31  C  3  S    0.000000  -0.003590  -0.009514  -0.035663   0.005669
   32  C  3  S    0.000000  -0.081641   0.031840   0.008092  -0.046059
   33  C  3  X    0.000000   0.267482  -0.115141  -0.189363   0.090655
   34  C  3  Y   -0.322722   0.000000   0.000000   0.000000   0.000000
   35  C  3  Z    0.000000  -0.595097   0.048615   0.064608   0.047464
   36  C  3  S    0.000000   0.038330  -0.006543   0.107019   0.057935
   37  C  3  X    0.000000  -0.044892   0.087553   0.087679  -0.033459
   38  C  3  Y    0.074135   0.000000   0.000000   0.000000   0.000000
   39  C  3  Z    0.000000   0.212234  -0.122833  -0.004650  -0.069830
   40  C  3 XX    0.000000  -0.155739  -0.221582  -0.183440  -0.219377
   41  C  3 YY    0.000000   0.118257   0.054682   0.472667   0.143608
   42  C  3 ZZ    0.000000  -0.120687   0.223160  -0.271253  -0.015212
   43  C  3 XY    0.469392   0.000000   0.000000   0.000000   0.000000
   44  C  3 XZ    0.000000   0.009269  -0.002494   0.196350  -0.004926
   45  C  3 YZ    0.362950   0.000000   0.000000   0.000000   0.000000
   46  C  4  S    0.000000  -0.003590  -0.009514  -0.035663   0.005669
   47  C  4  S    0.000000  -0.081641   0.031840   0.008092  -0.046059
   48  C  4  X    0.000000   0.267482  -0.115141  -0.189363   0.090655
   49  C  4  Y   -0.322722   0.000000   0.000000   0.000000   0.000000
   50  C  4  Z    0.000000   0.595097  -0.048615  -0.064608  -0.047464
   51  C  4  S    0.000000   0.038330  -0.006543   0.107019   0.057935
   52  C  4  X    0.000000  -0.044892   0.087553   0.087679  -0.033459
   53  C  4  Y    0.074135   0.000000   0.000000   0.000000   0.000000
   54  C  4  Z    0.000000  -0.212234   0.122833   0.004650   0.069830
   55  C  4 XX    0.000000  -0.155739  -0.221582  -0.183440  -0.219377
   56  C  4 YY    0.000000   0.118257   0.054682   0.472667   0.143608
   57  C  4 ZZ    0.000000  -0.120687   0.223160  -0.271253  -0.015212
   58  C  4 XY    0.469392   0.000000   0.000000   0.000000   0.000000
   59  C  4 XZ    0.000000  -0.009269   0.002494  -0.196350   0.004926
   60  C  4 YZ   -0.362950   0.000000   0.000000   0.000000   0.000000
   61  H  5  S    0.000000  -0.098441   0.173976   0.059323  -0.109161
   62  H  5  S    0.000000  -0.160937  -0.190512   0.089312   0.012268
   63  H  6  S    0.000000  -0.098441   0.173976   0.059323  -0.109161
   64  H  6  S    0.000000  -0.160937  -0.190512   0.089312   0.012268
   65  H  7  S    0.000000  -0.076473  -0.162558  -0.170987  -0.092322
   66  H  7  S    0.000000  -0.099762   0.052306   0.189216   0.030097
   67  H  8  S    0.000000  -0.076473  -0.162558  -0.170987  -0.092322
   68  H  8  S    0.000000  -0.099762   0.052306   0.189216   0.030097
   69  H  9  S    0.000000   0.082049   0.103056  -0.212996   0.036521
   70  H  9  S    0.000000   0.289370  -0.072075   0.058373   0.034301
   71  H 10  S    0.000000   0.082049   0.103056  -0.212996   0.036521
   72  H 10  S    0.000000   0.289370  -0.072075   0.058373   0.034301

                     41         42         43         44         45
                   -9.4068    -7.9406    -8.6120    -8.8631    -8.8305
                     A'         A'         A'         A'         A'  
    1  C  1  S   -0.000375   0.000000   0.018826   0.000000   0.000000
    2  C  1  S   -0.020652   0.000000  -0.089840   0.000000   0.000000
    3  C  1  X   -0.035304   0.000000  -0.138914   0.000000   0.000000
    4  C  1  Y    0.000000  -0.002954   0.000000   0.031704  -0.032670
    5  C  1  Z    0.009990   0.000000  -0.120547   0.000000   0.000000
    6  C  1  S   -0.008311   0.000000   0.030817   0.000000   0.000000
    7  C  1  X   -0.096519   0.000000   0.002388   0.000000   0.000000
    8  C  1  Y    0.000000  -0.031200   0.000000   0.048561   0.038439
    9  C  1  Z   -0.107067   0.000000  -0.000300   0.000000   0.000000
   10  C  1 XX    0.164804   0.000000  -0.087736   0.000000   0.000000
   11  C  1 YY   -0.017280   0.000000  -0.043981   0.000000   0.000000
   12  C  1 ZZ   -0.199243   0.000000  -0.051206   0.000000   0.000000
   13  C  1 XY    0.000000   0.199114   0.000000  -0.400224  -0.295391
   14  C  1 XZ    0.450444   0.000000   0.144134   0.000000   0.000000
   15  C  1 YZ    0.000000  -0.229693   0.000000   0.427799  -0.305708
   16  C  2  S   -0.000375   0.000000   0.018826   0.000000   0.000000
   17  C  2  S   -0.020652   0.000000  -0.089840   0.000000   0.000000
   18  C  2  X   -0.035304   0.000000  -0.138914   0.000000   0.000000
   19  C  2  Y    0.000000  -0.002954   0.000000   0.031704  -0.032670
   20  C  2  Z   -0.009990   0.000000   0.120547   0.000000   0.000000
   21  C  2  S   -0.008311   0.000000   0.030817   0.000000   0.000000
   22  C  2  X   -0.096519   0.000000   0.002388   0.000000   0.000000
   23  C  2  Y    0.000000  -0.031200   0.000000   0.048561   0.038439
   24  C  2  Z    0.107067   0.000000   0.000300   0.000000   0.000000
   25  C  2 XX    0.164804   0.000000  -0.087736   0.000000   0.000000
   26  C  2 YY   -0.017280   0.000000  -0.043981   0.000000   0.000000
   27  C  2 ZZ   -0.199243   0.000000  -0.051206   0.000000   0.000000
   28  C  2 XY    0.000000   0.199114   0.000000  -0.400224  -0.295391
   29  C  2 XZ   -0.450444   0.000000  -0.144134   0.000000   0.000000
   30  C  2 YZ    0.000000   0.229693   0.000000  -0.427799   0.305708
   31  C  3  S   -0.003798   0.000000  -0.021031   0.000000   0.000000
   32  C  3  S   -0.007968   0.000000   0.068970   0.000000   0.000000
   33  C  3  X   -0.083784   0.000000  -0.153239   0.000000   0.000000
   34  C  3  Y    0.000000   0.018774   0.000000  -0.019856   0.042329
   35  C  3  Z   -0.130792   0.000000  -0.097680   0.000000   0.000000
   36  C  3  S   -0.027366   0.000000   0.014603   0.000000   0.000000
   37  C  3  X    0.072826   0.000000  -0.121101   0.000000   0.000000
   38  C  3  Y    0.000000  -0.009888   0.000000   0.012856   0.063213
   39  C  3  Z    0.002819   0.000000  -0.088551   0.000000   0.000000
   40  C  3 XX   -0.030003   0.000000  -0.036011   0.000000   0.000000
   41  C  3 YY   -0.137670   0.000000   0.107260   0.000000   0.000000
   42  C  3 ZZ    0.158826   0.000000   0.073944   0.000000   0.000000
   43  C  3 XY    0.000000  -0.410848   0.000000  -0.123231   0.343263
   44  C  3 XZ    0.145564   0.000000  -0.536515   0.000000   0.000000
   45  C  3 YZ    0.000000   0.504351   0.000000   0.260287   0.253521
   46  C  4  S   -0.003798   0.000000  -0.021031   0.000000   0.000000
   47  C  4  S   -0.007968   0.000000   0.068970   0.000000   0.000000
   48  C  4  X   -0.083784   0.000000  -0.153239   0.000000   0.000000
   49  C  4  Y    0.000000   0.018774   0.000000  -0.019856   0.042329
   50  C  4  Z    0.130792   0.000000   0.097680   0.000000   0.000000
   51  C  4  S   -0.027366   0.000000   0.014603   0.000000   0.000000
   52  C  4  X    0.072826   0.000000  -0.121101   0.000000   0.000000
   53  C  4  Y    0.000000  -0.009888   0.000000   0.012856   0.063213
   54  C  4  Z   -0.002819   0.000000   0.088551   0.000000   0.000000
   55  C  4 XX   -0.030003   0.000000  -0.036011   0.000000   0.000000
   56  C  4 YY   -0.137670   0.000000   0.107260   0.000000   0.000000
   57  C  4 ZZ    0.158826   0.000000   0.073944   0.000000   0.000000
   58  C  4 XY    0.000000  -0.410848   0.000000  -0.123231   0.343263
   59  C  4 XZ   -0.145564   0.000000   0.536515   0.000000   0.000000
   60  C  4 YZ    0.000000  -0.504351   0.000000  -0.260287  -0.253521
   61  H  5  S   -0.041895   0.000000  -0.042850   0.000000   0.000000
   62  H  5  S    0.012840   0.000000   0.030085   0.000000   0.000000
   63  H  6  S   -0.041895   0.000000  -0.042850   0.000000   0.000000
   64  H  6  S    0.012840   0.000000   0.030085   0.000000   0.000000
   65  H  7  S    0.004827   0.000000   0.017462   0.000000   0.000000
   66  H  7  S    0.027896   0.000000  -0.037308   0.000000   0.000000
   67  H  8  S    0.004827   0.000000   0.017462   0.000000   0.000000
   68  H  8  S    0.027896   0.000000  -0.037308   0.000000   0.000000
   69  H  9  S    0.118063   0.000000   0.013436   0.000000   0.000000
   70  H  9  S    0.017767   0.000000  -0.034116   0.000000   0.000000
   71  H 10  S    0.118063   0.000000   0.013436   0.000000   0.000000
   72  H 10  S    0.017767   0.000000  -0.034116   0.000000   0.000000

                     46         47         48         49         50
                   -5.8917    -5.8678    -5.6145    -5.1120    -7.7023
                     A''        A''        A''        A''        A'' 
    1  C  1  S   -0.191269   0.069374  -0.136662  -0.025475  -0.285856
    2  C  1  S   -0.784946   0.331561  -0.173223   0.296736   2.408568
    3  C  1  X   -0.281856  -0.094428   0.367390  -0.067936  -0.130365
    4  C  1  Y    0.000000   0.000000   0.000000   0.000000   0.000000
    5  C  1  Z    0.020105  -0.145882  -0.107609  -0.038297   0.068486
    6  C  1  S    8.656462  -3.103819   2.943191  -0.525015   0.059787
    7  C  1  X    5.997347   1.954523  -2.853724  -0.941160   0.243217
    8  C  1  Y    0.000000   0.000000   0.000000   0.000000   0.000000
    9  C  1  Z   -1.332600   6.545434   1.013374  -0.251201   0.102365
   10  C  1 XX   -0.156226   0.266963  -0.364283  -0.221699  -1.246157
   11  C  1 YY   -0.523866   0.205228  -0.470744  -0.038976  -1.053867
   12  C  1 ZZ   -0.072386  -0.197155  -0.318083  -0.216238  -1.545230
   13  C  1 XY    0.000000   0.000000   0.000000   0.000000   0.000000
   14  C  1 XZ    0.072177   0.173786   0.005723  -0.119079  -0.122715
   15  C  1 YZ    0.000000   0.000000   0.000000   0.000000   0.000000
   16  C  2  S    0.191269  -0.069374   0.136662   0.025475   0.285856
   17  C  2  S    0.784946  -0.331561   0.173223  -0.296736  -2.408568
   18  C  2  X    0.281856   0.094428  -0.367390   0.067936   0.130365
   19  C  2  Y    0.000000   0.000000   0.000000   0.000000   0.000000
   20  C  2  Z    0.020105  -0.145882  -0.107609  -0.038297   0.068486
   21  C  2  S   -8.656462   3.103819  -2.943191   0.525015  -0.059787
   22  C  2  X   -5.997347  -1.954523   2.853724   0.941160  -0.243217
   23  C  2  Y    0.000000   0.000000   0.000000   0.000000   0.000000
   24  C  2  Z   -1.332600   6.545434   1.013374  -0.251201   0.102365
   25  C  2 XX    0.156226  -0.266963   0.364283   0.221699   1.246157
   26  C  2 YY    0.523866  -0.205228   0.470744   0.038976   1.053867
   27  C  2 ZZ    0.072386   0.197155   0.318083   0.216238   1.545230
   28  C  2 XY    0.000000   0.000000   0.000000   0.000000   0.000000
   29  C  2 XZ    0.072177   0.173786   0.005723  -0.119079  -0.122715
   30  C  2 YZ    0.000000   0.000000   0.000000   0.000000   0.000000
   31  C  3  S    0.092576   0.049140   0.043605   0.180212   0.056072
   32  C  3  S    0.379326   0.234352   0.063812  -0.289159  -0.630718
   33  C  3  X    0.225339  -0.101147  -0.203263   0.126692  -0.186109
   34  C  3  Y    0.000000   0.000000   0.000000   0.000000   0.000000
   35  C  3  Z    0.067917   0.244632   0.037044   0.108776  -0.210141
   36  C  3  S   -6.640953  -3.738360  -0.122364  -2.066415   0.301916
   37  C  3  X    1.176426   3.153344   1.338713  -1.537043   0.062938
   38  C  3  Y    0.000000   0.000000   0.000000   0.000000   0.000000
   39  C  3  Z    3.273794  -0.791870  -1.251813  -0.724759   0.313120
   40  C  3 XX    0.088519  -0.022163   0.065332   0.705904   0.403013
   41  C  3 YY    0.246633   0.200472   0.119060   0.665171   0.167622
   42  C  3 ZZ    0.052763   0.036085   0.121020   0.619164   0.301310
   43  C  3 XY    0.000000   0.000000   0.000000   0.000000   0.000000
   44  C  3 XZ   -0.182935  -0.106161  -0.015395   0.162789   0.108737
   45  C  3 YZ    0.000000   0.000000   0.000000   0.000000   0.000000
   46  C  4  S   -0.092576  -0.049140  -0.043605  -0.180212  -0.056072
   47  C  4  S   -0.379326  -0.234352  -0.063812   0.289159   0.630718
   48  C  4  X   -0.225339   0.101147   0.203263  -0.126692   0.186109
   49  C  4  Y    0.000000   0.000000   0.000000   0.000000   0.000000
   50  C  4  Z    0.067917   0.244632   0.037044   0.108776  -0.210141
   51  C  4  S    6.640953   3.738360   0.122364   2.066415  -0.301916
   52  C  4  X   -1.176426  -3.153344  -1.338713   1.537043  -0.062938
   53  C  4  Y    0.000000   0.000000   0.000000   0.000000   0.000000
   54  C  4  Z    3.273794  -0.791870  -1.251813  -0.724759   0.313120
   55  C  4 XX   -0.088519   0.022163  -0.065332  -0.705904  -0.403013
   56  C  4 YY   -0.246633  -0.200472  -0.119060  -0.665171  -0.167622
   57  C  4 ZZ   -0.052763  -0.036085  -0.121020  -0.619164  -0.301310
   58  C  4 XY    0.000000   0.000000   0.000000   0.000000   0.000000
   59  C  4 XZ   -0.182935  -0.106161  -0.015395   0.162789   0.108737
   60  C  4 YZ    0.000000   0.000000   0.000000   0.000000   0.000000
   61  H  5  S    0.220382   0.082003  -0.279452   0.020364   0.124918
   62  H  5  S    1.678489  -0.275933  -2.395396  -0.601071   0.091512
   63  H  6  S   -0.220382  -0.082003   0.279452  -0.020364  -0.124918
   64  H  6  S   -1.678489   0.275933   2.395396   0.601071  -0.091512
   65  H  7  S    0.295310  -0.108049  -0.051690  -0.275513   0.004697
   66  H  7  S    0.851656  -1.393878  -1.055038   2.197188  -0.161003
   67  H  8  S   -0.295310   0.108049   0.051690   0.275513  -0.004697
   68  H  8  S   -0.851656   1.393878   1.055038  -2.197188   0.161003
   69  H  9  S   -0.013545   0.299483   0.076866  -0.048351  -0.013806
   70  H  9  S   -0.627430   0.751383   1.032231   0.939865  -0.322779
   71  H 10  S    0.013545  -0.299483  -0.076866   0.048351   0.013806
   72  H 10  S    0.627430  -0.751383  -1.032231  -0.939865   0.322779

                     51         52         53         54         55
                   -7.3534    -7.3643    -8.0520    -6.5668    -7.0376
                     A''        A''        A''        A''        A'' 
    1  C  1  S   -0.072605   0.059702   0.000000  -0.042979   0.007391
    2  C  1  S    0.660149  -0.269887   0.000000  -0.342541  -0.378324
    3  C  1  X    0.150192   0.343260   0.000000  -0.161355  -0.367007
    4  C  1  Y    0.000000   0.000000  -0.670039   0.000000   0.000000
    5  C  1  Z    0.086837  -0.173365   0.000000  -0.168170  -0.138922
    6  C  1  S   -0.056291  -0.038405   0.000000   0.253590   0.092851
    7  C  1  X   -0.215496  -0.648475   0.000000   0.712536  -0.112719
    8  C  1  Y    0.000000   0.000000   1.390409   0.000000   0.000000
    9  C  1  Z    0.120123   0.905981   0.000000   0.441357   0.121922
   10  C  1 XX   -0.210643   0.264211   0.000000  -0.079082  -0.002984
   11  C  1 YY   -0.286036   0.185610   0.000000  -0.187160   0.091247
   12  C  1 ZZ   -0.346931   0.035365   0.000000  -0.229050  -0.478182
   13  C  1 XY    0.000000   0.000000   0.154339   0.000000   0.000000
   14  C  1 XZ    0.063937   0.054834   0.000000   0.196164  -0.547859
   15  C  1 YZ    0.000000   0.000000  -0.104037   0.000000   0.000000
   16  C  2  S    0.072605  -0.059702   0.000000   0.042979  -0.007391
   17  C  2  S   -0.660149   0.269887   0.000000   0.342541   0.378324
   18  C  2  X   -0.150192  -0.343260   0.000000   0.161355   0.367007
   19  C  2  Y    0.000000   0.000000   0.670039   0.000000   0.000000
   20  C  2  Z    0.086837  -0.173365   0.000000  -0.168170  -0.138922
   21  C  2  S    0.056291   0.038405   0.000000  -0.253590  -0.092851
   22  C  2  X    0.215496   0.648475   0.000000  -0.712536   0.112719
   23  C  2  Y    0.000000   0.000000  -1.390409   0.000000   0.000000
   24  C  2  Z    0.120123   0.905981   0.000000   0.441357   0.121922
   25  C  2 XX    0.210643  -0.264211   0.000000   0.079082   0.002984
   26  C  2 YY    0.286036  -0.185610   0.000000   0.187160  -0.091247
   27  C  2 ZZ    0.346931  -0.035365   0.000000   0.229050   0.478182
   28  C  2 XY    0.000000   0.000000  -0.154339   0.000000   0.000000
   29  C  2 XZ    0.063937   0.054834   0.000000   0.196164  -0.547859
   30  C  2 YZ    0.000000   0.000000  -0.104037   0.000000   0.000000
   31  C  3  S   -0.263956   0.061660   0.000000  -0.069365  -0.016009
   32  C  3  S    2.383996  -0.305227   0.000000  -0.403236   0.176269
   33  C  3  X    0.114936   0.160685   0.000000   0.279493  -0.407096
   34  C  3  Y    0.000000   0.000000   0.354083   0.000000   0.000000
   35  C  3  Z   -0.013208  -0.607952   0.000000   0.151976  -0.302052
   36  C  3  S   -0.272907  -0.033979   0.000000   0.470596   0.069795
   37  C  3  X   -0.380871  -0.344819   0.000000  -0.541606   0.151802
   38  C  3  Y    0.000000   0.000000  -0.747858   0.000000   0.000000
   39  C  3  Z    0.089513   1.687465   0.000000  -0.531437  -0.232287
   40  C  3 XX   -1.140145  -0.049628   0.000000  -0.031592   0.565097
   41  C  3 YY   -0.995110   0.163588   0.000000  -0.399357  -0.176677
   42  C  3 ZZ   -1.106887   0.222764   0.000000  -0.280894  -0.257093
   43  C  3 XY    0.000000   0.000000   0.166312   0.000000   0.000000
   44  C  3 XZ   -0.025480  -0.079351   0.000000   0.135237   0.280339
   45  C  3 YZ    0.000000   0.000000   0.111161   0.000000   0.000000
   46  C  4  S    0.263956  -0.061660   0.000000   0.069365   0.016009
   47  C  4  S   -2.383996   0.305227   0.000000   0.403236  -0.176269
   48  C  4  X   -0.114936  -0.160685   0.000000  -0.279493   0.407096
   49  C  4  Y    0.000000   0.000000  -0.354083   0.000000   0.000000
   50  C  4  Z   -0.013208  -0.607952   0.000000   0.151976  -0.302052
   51  C  4  S    0.272907   0.033979   0.000000  -0.470596  -0.069795
   52  C  4  X    0.380871   0.344819   0.000000   0.541606  -0.151802
   53  C  4  Y    0.000000   0.000000   0.747858   0.000000   0.000000
   54  C  4  Z    0.089513   1.687465   0.000000  -0.531437  -0.232287
   55  C  4 XX    1.140145   0.049628   0.000000   0.031592  -0.565097
   56  C  4 YY    0.995110  -0.163588   0.000000   0.399357   0.176677
   57  C  4 ZZ    1.106887  -0.222764   0.000000   0.280894   0.257093
   58  C  4 XY    0.000000   0.000000  -0.166312   0.000000   0.000000
   59  C  4 XZ   -0.025480  -0.079351   0.000000   0.135237   0.280339
   60  C  4 YZ    0.000000   0.000000   0.111161   0.000000   0.000000
   61  H  5  S    0.043868   0.036523   0.000000   0.510408  -0.491015
   62  H  5  S   -0.245997  -0.738241   0.000000  -0.535539   0.390884
   63  H  6  S   -0.043868  -0.036523   0.000000  -0.510408   0.491015
   64  H  6  S    0.245997   0.738241   0.000000   0.535539  -0.390884
   65  H  7  S    0.033190   0.027538   0.000000  -0.197847  -0.362519
   66  H  7  S    0.573450   0.810440   0.000000   0.310896   0.253002
   67  H  8  S   -0.033190  -0.027538   0.000000   0.197847   0.362519
   68  H  8  S   -0.573450  -0.810440   0.000000  -0.310896  -0.253002
   69  H  9  S    0.111347   0.059944   0.000000   0.185643   0.497906
   70  H  9  S   -0.039683  -1.277003   0.000000   0.028444  -0.310159
   71  H 10  S   -0.111347  -0.059944   0.000000  -0.185643  -0.497906
   72  H 10  S    0.039683   1.277003   0.000000  -0.028444   0.310159

                     56         57         58         59         60
                   -8.0309    -8.1011    -6.2102    -6.5915    -8.0918
                     A''        A''        A''        A''        A'' 
    1  C  1  S   -0.022761   0.044637  -0.045848   0.032422   0.000000
    2  C  1  S    0.140452  -0.253704  -0.024474   0.061470   0.000000
    3  C  1  X    0.421771  -0.052922  -0.080633   0.241328   0.000000
    4  C  1  Y    0.000000   0.000000   0.000000   0.000000   0.339791
    5  C  1  Z    0.531901   0.551509  -0.096735   0.089376   0.000000
    6  C  1  S    0.092529  -0.054292   0.066589  -0.119360   0.000000
[...]
    1  C  1  S    0.036739   0.007654  -0.088945  -0.272729  -0.128348
    2  C  1  S   -0.205270   0.071577   0.263356   1.826495   0.842222
    3  C  1  X   -0.419140   0.272943   0.149194   0.027368   0.106610
    4  C  1  Y    0.000000   0.000000   0.000000   0.000000   0.000000
    5  C  1  Z   -0.221772   0.423947  -0.040167  -0.024547   0.162301
    6  C  1  S   -1.376389  -0.086141   1.985664   0.630276   0.451954
    7  C  1  X   -0.590713   0.861919   0.901487  -0.000157   0.123080
    8  C  1  Y    0.000000   0.000000   0.000000   0.000000   0.000000
    9  C  1  Z   -0.533347   1.618021  -0.262380   0.004396  -0.165454
   10  C  1 XX   -0.536787   0.719361  -0.382030  -1.077003  -0.370282
   11  C  1 YY    0.319313  -0.039125  -0.470458  -1.062715  -0.513372
   12  C  1 ZZ    0.121267  -0.634597   0.525275  -0.964902  -0.548154
   13  C  1 XY    0.000000   0.000000   0.000000   0.000000   0.000000
   14  C  1 XZ   -0.422426   0.536114   0.742794   0.009731   0.069809
   15  C  1 YZ    0.000000   0.000000   0.000000   0.000000   0.000000
   16  C  2  S    0.036739  -0.007654   0.088945  -0.272729   0.128348
   17  C  2  S   -0.205270  -0.071577  -0.263356   1.826495  -0.842222
   18  C  2  X   -0.419140  -0.272943  -0.149194   0.027368  -0.106610
   19  C  2  Y    0.000000   0.000000   0.000000   0.000000   0.000000
   20  C  2  Z    0.221772   0.423947  -0.040167   0.024547   0.162301
   21  C  2  S   -1.376389   0.086141  -1.985664   0.630276  -0.451954
   22  C  2  X   -0.590713  -0.861919  -0.901487  -0.000157  -0.123080
   23  C  2  Y    0.000000   0.000000   0.000000   0.000000   0.000000
   24  C  2  Z    0.533347   1.618021  -0.262380  -0.004396  -0.165454
   25  C  2 XX   -0.536787  -0.719361   0.382030  -1.077003   0.370282
   26  C  2 YY    0.319313   0.039125   0.470458  -1.062715   0.513372
   27  C  2 ZZ    0.121267   0.634597  -0.525275  -0.964902   0.548154
   28  C  2 XY    0.000000   0.000000   0.000000   0.000000   0.000000
   29  C  2 XZ    0.422426   0.536114   0.742794  -0.009731   0.069809
   30  C  2 YZ    0.000000   0.000000   0.000000   0.000000   0.000000
   31  C  3  S   -0.049011   0.027688   0.025406  -0.181491  -0.308258
   32  C  3  S    0.117002  -0.208256  -0.176987   1.315706   2.007880
   33  C  3  X   -0.369426   0.316833   0.346937  -0.080021   0.018347
   34  C  3  Y    0.000000   0.000000   0.000000   0.000000   0.000000
   35  C  3  Z   -0.293112   0.305543   0.162745  -0.081776   0.037973
   36  C  3  S    1.480445  -1.342929  -1.113465   0.349921   0.975481
   37  C  3  X   -0.742595   0.911310   0.247173   0.037562   0.090036
   38  C  3  Y    0.000000   0.000000   0.000000   0.000000   0.000000
   39  C  3  Z   -0.377629   0.135032   0.618482   0.163746   0.060815
   40  C  3 XX    0.064311   0.039357  -0.550271  -0.701749  -1.217007
   41  C  3 YY   -0.405864   0.200768   0.183101  -0.703287  -1.192983
   42  C  3 ZZ    0.329773  -0.272293   0.365573  -0.709341  -1.248881
   43  C  3 XY    0.000000   0.000000   0.000000   0.000000   0.000000
   44  C  3 XZ    0.702314  -0.559511  -0.199231   0.048269  -0.048011
   45  C  3 YZ    0.000000   0.000000   0.000000   0.000000   0.000000
   46  C  4  S   -0.049011  -0.027688  -0.025406  -0.181491   0.308258
   47  C  4  S    0.117002   0.208256   0.176987   1.315706  -2.007880
   48  C  4  X   -0.369426  -0.316833  -0.346937  -0.080021  -0.018347
   49  C  4  Y    0.000000   0.000000   0.000000   0.000000   0.000000
   50  C  4  Z    0.293112   0.305543   0.162745   0.081776   0.037973
   51  C  4  S    1.480445   1.342929   1.113465   0.349921  -0.975481
   52  C  4  X   -0.742595  -0.911310  -0.247173   0.037562  -0.090036
   53  C  4  Y    0.000000   0.000000   0.000000   0.000000   0.000000
   54  C  4  Z    0.377629   0.135032   0.618482  -0.163746   0.060815
   55  C  4 XX    0.064311  -0.039357   0.550271  -0.701749   1.217007
   56  C  4 YY   -0.405864  -0.200768  -0.183101  -0.703287   1.192983
   57  C  4 ZZ    0.329773   0.272293  -0.365573  -0.709341   1.248881
   58  C  4 XY    0.000000   0.000000   0.000000   0.000000   0.000000
   59  C  4 XZ   -0.702314  -0.559511  -0.199231  -0.048269  -0.048011
   60  C  4 YZ    0.000000   0.000000   0.000000   0.000000   0.000000
   61  H  5  S    0.095103  -0.024275   0.296847   0.119303   0.049625
   62  H  5  S   -0.104955   0.023273   0.017719  -0.212021  -0.015805
   63  H  6  S    0.095103   0.024275  -0.296847   0.119303  -0.049625
   64  H  6  S   -0.104955  -0.023273  -0.017719  -0.212021   0.015805
   65  H  7  S    0.164482  -0.184323   0.216793   0.100620   0.110570
   66  H  7  S    0.000361  -0.218489   0.012150  -0.108319  -0.337753
   67  H  8  S    0.164482   0.184323  -0.216793   0.100620  -0.110570
   68  H  8  S    0.000361   0.218489  -0.012150  -0.108319   0.337753
   69  H  9  S   -0.176723   0.153795  -0.195807   0.068354   0.119569
   70  H  9  S    0.029673   0.013318  -0.058035  -0.210048  -0.280864
   71  H 10  S   -0.176723  -0.153795   0.195807   0.068354  -0.119569
   72  H 10  S    0.029673  -0.013318   0.058035  -0.210048   0.280864

                     71         72
                    4.6299     4.9093
                     A'         A'' 
    1  C  1  S    0.196484  -0.311423
    2  C  1  S   -1.130274   1.883153
    3  C  1  X    0.209680  -0.187631
    4  C  1  Y    0.000000   0.000000
    5  C  1  Z    0.167822   0.053151
    6  C  1  S   -0.986668   2.106337
    7  C  1  X   -0.163967   0.329790
    8  C  1  Y    0.000000   0.000000
    9  C  1  Z   -0.130268  -0.196853
   10  C  1 XX    0.909296  -1.314209
   11  C  1 YY    0.739287  -1.133829
   12  C  1 ZZ    0.746896  -1.626441
   13  C  1 XY    0.000000   0.000000
   14  C  1 XZ    0.144838  -0.225258
   15  C  1 YZ    0.000000   0.000000
   16  C  2  S    0.196484   0.311423
   17  C  2  S   -1.130274  -1.883153
   18  C  2  X    0.209680   0.187631
   19  C  2  Y    0.000000   0.000000
   20  C  2  Z   -0.167822   0.053151
   21  C  2  S   -0.986668  -2.106337
   22  C  2  X   -0.163967  -0.329790
   23  C  2  Y    0.000000   0.000000
   24  C  2  Z    0.130268  -0.196853
   25  C  2 XX    0.909296   1.314209
   26  C  2 YY    0.739287   1.133829
   27  C  2 ZZ    0.746896   1.626441
   28  C  2 XY    0.000000   0.000000
   29  C  2 XZ   -0.144838  -0.225258
   30  C  2 YZ    0.000000   0.000000
   31  C  3  S   -0.276849   0.129173
   32  C  3  S    1.712537  -0.721358
   33  C  3  X    0.169526  -0.226203
   34  C  3  Y    0.000000   0.000000
   35  C  3  Z    0.130054  -0.142640
   36  C  3  S    1.417837  -1.198730
   37  C  3  X   -0.091850   0.092013
   38  C  3  Y    0.000000   0.000000
   39  C  3  Z   -0.107345   0.200087
   40  C  3 XX   -1.226594   0.761432
   41  C  3 YY   -1.043736   0.438176
   42  C  3 ZZ   -1.146522   0.548291
   43  C  3 XY    0.000000   0.000000
   44  C  3 XZ   -0.147986   0.162929
   45  C  3 YZ    0.000000   0.000000
   46  C  4  S   -0.276849  -0.129173
   47  C  4  S    1.712537   0.721358
   48  C  4  X    0.169526   0.226203
   49  C  4  Y    0.000000   0.000000
   50  C  4  Z   -0.130054  -0.142640
   51  C  4  S    1.417837   1.198730
   52  C  4  X   -0.091850  -0.092013
   53  C  4  Y    0.000000   0.000000
   54  C  4  Z    0.107345   0.200087
   55  C  4 XX   -1.226594  -0.761432
   56  C  4 YY   -1.043736  -0.438176
   57  C  4 ZZ   -1.146522  -0.548291
   58  C  4 XY    0.000000   0.000000
   59  C  4 XZ    0.147986   0.162929
   60  C  4 YZ    0.000000   0.000000
   61  H  5  S   -0.065447   0.075774
   62  H  5  S    0.151859  -0.208553
   63  H  6  S   -0.065447  -0.075774
   64  H  6  S    0.151859   0.208553
   65  H  7  S    0.080161  -0.048165
   66  H  7  S   -0.257885   0.232782
   67  H  8  S    0.080161   0.048165
   68  H  8  S   -0.257885  -0.232782
   69  H  9  S    0.090984  -0.023238
   70  H  9  S   -0.251657   0.123225
   71  H 10  S    0.090984   0.023238
   72  H 10  S   -0.251657  -0.123225
 .....DONE WITH MCSCF ITERATIONS.....
 CPU     0: STEP CPU TIME=     1.11 TOTAL CPU TIME=        2.3 (    0.0 MIN)
 TOTAL WALL CLOCK TIME=        2.3 SECONDS, CPU UTILIZATION IS 100.00%

     ----------------------------------------------------------------
     PROPERTY VALUES FOR THE MCSCF SELF-CONSISTENT FIELD WAVEFUNCTION
     ----------------------------------------------------------------

          -----------------
          ENERGY COMPONENTS
          -----------------

         WAVEFUNCTION NORMALIZATION =       1.0000000000

                ONE ELECTRON ENERGY =    -414.6320800259
                TWO ELECTRON ENERGY =     155.1541608443
           NUCLEAR REPULSION ENERGY =     104.5079680865
                                      ------------------
                       TOTAL ENERGY =    -154.9699510950

 ELECTRON-ELECTRON POTENTIAL ENERGY =     155.1541608443
  NUCLEUS-ELECTRON POTENTIAL ENERGY =    -569.4051309056
   NUCLEUS-NUCLEUS POTENTIAL ENERGY =     104.5079680865
                                      ------------------
             TOTAL POTENTIAL ENERGY =    -309.7430019748
               TOTAL KINETIC ENERGY =     154.7730508798
                 VIRIAL RATIO (V/T) =       2.0012721867

          ---------------------------------------
          MULLIKEN AND LOWDIN POPULATION ANALYSES
          ---------------------------------------

     ATOMIC MULLIKEN POPULATION IN EACH MOLECULAR ORBITAL

                      1          2          3          4          5

                  2.000000   2.000000   2.000000   2.000000   2.000000

    1             0.992382   0.990898   0.008947   0.007353   0.597981
    2             0.992382   0.990898   0.008947   0.007353   0.597981
    3             0.007413   0.008979   0.990631   0.992258   0.331527
    4             0.007413   0.008979   0.990631   0.992258   0.331527
    5             0.000198   0.000125  -0.000003  -0.000001   0.035102
    6             0.000198   0.000125  -0.000003  -0.000001   0.035102
    7            -0.000004  -0.000006   0.000238   0.000182   0.020208
    8            -0.000004  -0.000006   0.000238   0.000182   0.020208
    9             0.000010   0.000005   0.000187   0.000207   0.015182
   10             0.000010   0.000005   0.000187   0.000207   0.015182

                      6          7          8          9         10

                  2.000000   2.000000   2.000000   2.000000   2.000000

    1             0.337316   0.390854   0.299271   0.364708   0.364566
    2             0.337316   0.390854   0.299271   0.364708   0.364566
    3             0.549707   0.364947   0.360226   0.306974   0.420298
    4             0.549707   0.364947   0.360226   0.306974   0.420298
    5             0.023105   0.062459   0.138889   0.141913   0.024339
    6             0.023105   0.062459   0.138889   0.141913   0.024339
    7             0.035326   0.096409   0.134099   0.049516   0.174457
    8             0.035326   0.096409   0.134099   0.049516   0.174457
    9             0.054546   0.085332   0.067516   0.136889   0.016341
   10             0.054546   0.085332   0.067516   0.136889   0.016341

                     11         12         13         14         15

                  2.000000   2.000000   2.000000   1.928254   1.880057

    1             0.134276   0.282185   0.387830   0.604126   0.342236
    2             0.134276   0.282185   0.387830   0.604126   0.342236
    3             0.494224   0.316460   0.228584   0.360001   0.597792
    4             0.494224   0.316460   0.228584   0.360001   0.597792
    5             0.054389   0.205691   0.132433   0.000000   0.000000
    6             0.054389   0.205691   0.132433   0.000000   0.000000
    7             0.050013   0.174378   0.092563   0.000000   0.000000
    8             0.050013   0.174378   0.092563   0.000000   0.000000
    9             0.267098   0.021286   0.158590   0.000000   0.000000
   10             0.267098   0.021286   0.158590   0.000000   0.000000

                     16         17

                  0.125103   0.066587

    1             0.023439   0.020907
    2             0.023439   0.020907
    3             0.039112   0.012387
    4             0.039112   0.012387
    5             0.000000   0.000000
    6             0.000000   0.000000
    7             0.000000   0.000000
    8             0.000000   0.000000
    9             0.000000   0.000000
   10             0.000000   0.000000
 WARNING! MCSCF POPULATIONS SHOWN ABOVE ARE FOR THE NATURAL ORBITALS.
 IGNORE THE ABOVE DATA FOR MCSCF FUNCTIONS WHICH ARE NOT OF -FORS- TYPE.
 THE FOLLOWING POPULATIONS ARE CORRECT FOR ANY MCSCF WAVEFUNCTION.

               ----- POPULATIONS IN EACH AO -----
                             MULLIKEN      LOWDIN
              1  C  1  S      1.99653     1.98000
              2  C  1  S      0.66460     0.35134
              3  C  1  X      0.73480     0.65260
              4  C  1  Y      0.54426     0.50075
              5  C  1  Z      0.71644     0.63721
              6  C  1  S      0.50243     0.30479
              7  C  1  X      0.28831     0.40251
              8  C  1  Y      0.43709     0.46781
              9  C  1  Z      0.20511     0.35115
             10  C  1 XX      0.02954     0.17954
             11  C  1 YY     -0.01802     0.10100
             12  C  1 ZZ      0.02373     0.17772
             13  C  1 XY      0.00377     0.00671
             14  C  1 XZ      0.01511     0.02808
             15  C  1 YZ      0.00559     0.01205
             16  C  2  S      1.99653     1.98000
             17  C  2  S      0.66460     0.35134
             18  C  2  X      0.73480     0.65260
             19  C  2  Y      0.54426     0.50075
             20  C  2  Z      0.71644     0.63721
             21  C  2  S      0.50243     0.30479
             22  C  2  X      0.28831     0.40251
             23  C  2  Y      0.43709     0.46781
             24  C  2  Z      0.20511     0.35115
             25  C  2 XX      0.02954     0.17954
             26  C  2 YY     -0.01802     0.10100
             27  C  2 ZZ      0.02373     0.17772
             28  C  2 XY      0.00377     0.00671
             29  C  2 XZ      0.01511     0.02808
             30  C  2 YZ      0.00559     0.01205
             31  C  3  S      1.99643     1.98122
             32  C  3  S      0.65541     0.35667
             33  C  3  X      0.73073     0.65193
             34  C  3  Y      0.54430     0.51119
             35  C  3  Z      0.71977     0.64205
             36  C  3  S      0.59044     0.33493
             37  C  3  X      0.28701     0.41302
             38  C  3  Y      0.45909     0.49123
             39  C  3  Z      0.33787     0.43711
             40  C  3 XX      0.03041     0.18529
             41  C  3 YY     -0.01957     0.10263
             42  C  3 ZZ      0.03253     0.18352
             43  C  3 XY      0.00383     0.00668
             44  C  3 XZ      0.01120     0.01829
             45  C  3 YZ      0.00207     0.00357
             46  C  4  S      1.99643     1.98122
             47  C  4  S      0.65541     0.35667
             48  C  4  X      0.73073     0.65193
             49  C  4  Y      0.54430     0.51119
             50  C  4  Z      0.71977     0.64205
             51  C  4  S      0.59044     0.33493
             52  C  4  X      0.28701     0.41302
             53  C  4  Y      0.45909     0.49123
             54  C  4  Z      0.33787     0.43711
             55  C  4 XX      0.03041     0.18529
             56  C  4 YY     -0.01957     0.10263
             57  C  4 ZZ      0.03253     0.18352
             58  C  4 XY      0.00383     0.00668
             59  C  4 XZ      0.01120     0.01829
             60  C  4 YZ      0.00207     0.00357
             61  H  5  S      0.52733     0.49304
             62  H  5  S      0.29131     0.35123
             63  H  6  S      0.52733     0.49304
             64  H  6  S      0.29131     0.35123
             65  H  7  S      0.52498     0.48539
             66  H  7  S      0.30240     0.35820
             67  H  8  S      0.52498     0.48539
             68  H  8  S      0.30240     0.35820
             69  H  9  S      0.52403     0.48523
             70  H  9  S      0.29915     0.35430
             71  H 10  S      0.52403     0.48523
             72  H 10  S      0.29915     0.35430

          ----- MULLIKEN ATOMIC OVERLAP POPULATIONS -----
          (OFF-DIAGONAL ELEMENTS NEED TO BE MULTIPLIED BY 2)

             1           2           3           4           5

    1    4.9219704
    2    0.3966592   4.9219704
    3    0.6015726  -0.0490623   5.0861477
    4   -0.0490623   0.6015726  -0.0117220   5.0861477
    5    0.3938501  -0.0380332  -0.0397253   0.0029802   0.5017881
    6   -0.0380332   0.3938501   0.0029802  -0.0397253  -0.0019220
    7   -0.0419997  -0.0027086   0.3948890   0.0011435   0.0031546
    8   -0.0027086  -0.0419997   0.0011435   0.3948890   0.0000268
    9   -0.0353365   0.0023635   0.3952534   0.0000431  -0.0033861
   10    0.0023635  -0.0353365   0.0000431   0.3952534  -0.0000947

             6           7           8           9          10

    6    0.5017881
    7    0.0000268   0.4988605
    8    0.0031546   0.0011396   0.4988605
    9   -0.0000947  -0.0270786  -0.0000482   0.4914696
   10   -0.0033861  -0.0000482  -0.0270786   0.0000016   0.4914696

          TOTAL MULLIKEN AND LOWDIN ATOMIC POPULATIONS
       ATOM         MULL.POP.    CHARGE          LOW.POP.     CHARGE
    1 CARBON        6.149276   -0.149276         6.153267   -0.153267
    2 CARBON        6.149276   -0.149276         6.153267   -0.153267
    3 CARBON        6.381520   -0.381520         6.319338   -0.319338
    4 CARBON        6.381520   -0.381520         6.319338   -0.319338
    5 HYDROGEN      0.818638    0.181362         0.844271    0.155729
    6 HYDROGEN      0.818638    0.181362         0.844271    0.155729
    7 HYDROGEN      0.827379    0.172621         0.843594    0.156406
    8 HYDROGEN      0.827379    0.172621         0.843594    0.156406
    9 HYDROGEN      0.823187    0.176813         0.839530    0.160470
   10 HYDROGEN      0.823187    0.176813         0.839530    0.160470

          ---------------------
          ELECTROSTATIC MOMENTS
          ---------------------

 POINT   1           X           Y           Z (BOHR)    CHARGE
                 0.000000    0.000000    0.000000        0.00 (A.U.)
         DX          DY          DZ         /D/  (DEBYE)
    -0.069243    0.000000    0.000000    0.069243
 ...... END OF PROPERTY EVALUATION ......
 CPU     0: STEP CPU TIME=     0.02 TOTAL CPU TIME=        2.3 (    0.0 MIN)
 TOTAL WALL CLOCK TIME=        2.3 SECONDS, CPU UTILIZATION IS 100.00%
                   580000  WORDS OF DYNAMIC MEMORY USED
 EXECUTION OF GAMESS TERMINATED NORMALLY Thu Nov 16 14:28:23 2023
 DDI: 263624 bytes (0.3 MB / 0 MWords) used by master data server.

 ----------------------------------------
 CPU timing information for all processes
 ========================================
 0: 2.012412 + 0.171601 = 2.184013
 1: 1.404009 + 0.312002 = 1.716011
 2: 1.450809 + 0.343202 = 1.794011
 3: 1.248008 + 0.312002 = 1.560010
 4: 0.327602 + 0.062400 = 0.390002
 5: 0.062400 + 0.046800 = 0.109200
 6: 0.031200 + 0.031200 = 0.062400
 7: 0.015600 + 0.000000 = 0.015600
 ----------------------------------------
           Disk usage (in bytes)       
 ========================================
 ----------------------------------------
            Local date and time          
 ========================================
16.11.2023 - 14:28:29.59                          
