          ******************************************************
          *         GAMESS VERSION =  1 MAY 2013 (R1)          *
          *             FROM IOWA STATE UNIVERSITY             *
          * M.W.SCHMIDT, K.K.BALDRIDGE, J.A.BOATZ, S.T.ELBERT, *
          *   M.S.GORDON, J.H.JENSEN, S.KOSEKI, N.MATSUNAGA,   *
          *          K.A.NGUYEN, S.J.SU, T.L.WINDUS,           *
          *       TOGETHER WITH M.DUPUIS, J.A.MONTGOMERY       *
          *         J.COMPUT.CHEM.  14, 1347-1363(1993)        *
          *************** 64 BIT WINDOWS VERSION ***************

  SINCE 1993, STUDENTS AND POSTDOCS WORKING AT IOWA STATE UNIVERSITY
  AND ALSO IN THEIR VARIOUS JOBS AFTER LEAVING ISU HAVE MADE IMPORTANT
  CONTRIBUTIONS TO THE CODE:
     IVANA ADAMOVIC, CHRISTINE AIKENS, YURI ALEXEEV, POOJA ARORA,
     ANDREY ASADCHEV, ROB BELL, PRADIPTA BANDYOPADHYAY, JONATHAN BENTZ,
     BRETT BODE, GALINA CHABAN, WEI CHEN, CHEOL HO CHOI, PAUL DAY,
     ALBERT DEFUSCO, TIM DUDLEY, DMITRI FEDOROV, GRAHAM FLETCHER,
     MARK FREITAG, KURT GLAESEMANN, DAN KEMP, GRANT MERRILL,
     NORIYUKI MINEZAWA, JONATHAN MULLIN, TAKESHI NAGATA,
     SEAN NEDD, HEATHER NETZLOFF, BOSILJKA NJEGIC, RYAN OLSON, MIKE PAK,
     JIM SHOEMAKER, LYUDMILA SLIPCHENKO, SAROM SOK, JIE SONG,
     TETSUYA TAKETSUGU, SIMON WEBB, SOOHAENG YOO, FEDERICO ZAHARIEV

  ADDITIONAL CODE HAS BEEN PROVIDED BY COLLABORATORS IN OTHER GROUPS:
     IOWA STATE UNIVERSITY:
          JOE IVANIC, LAIMUTIS BYTAUTAS, KLAUS RUEDENBERG
     UNIVERSITY OF TOKYO: KIMIHIKO HIRAO, TAKAHITO NAKAJIMA,
          TAKAO TSUNEDA, MUNEAKI KAMIYA, SUSUMU YANAGISAWA,
          KIYOSHI YAGI, MAHITO CHIBA, SEIKEN TOKURA, NAOAKI KAWAKAMI
     UNIVERSITY OF AARHUS: FRANK JENSEN
     UNIVERSITY OF IOWA: VISVALDAS KAIRYS, HUI LI
     NATIONAL INST. OF STANDARDS AND TECHNOLOGY: WALT STEVENS, DAVID GARMER
     UNIVERSITY OF PISA: BENEDETTA MENNUCCI, JACOPO TOMASI
     UNIVERSITY OF MEMPHIS: HENRY KURTZ, PRAKASHAN KORAMBATH
     UNIVERSITY OF ALBERTA: TOBY ZENG, MARIUSZ KLOBUKOWSKI
     UNIVERSITY OF NEW ENGLAND: MARK SPACKMAN
     MIE UNIVERSITY: HIROAKI UMEDA
     MICHIGAN STATE UNIVERSITY:
          KAROL KOWALSKI, MARTA WLOCH, JEFFREY GOUR, JESSE LUTZ,
          WEI LI, PIOTR PIECUCH
     UNIVERSITY OF SILESIA: MONIKA MUSIAL, STANISLAW KUCHARSKI
     FACULTES UNIVERSITAIRES NOTRE-DAME DE LA PAIX:
          OLIVIER QUINET, BENOIT CHAMPAGNE
     UNIVERSITY OF CALIFORNIA - SANTA BARBARA: BERNARD KIRTMAN
     INSTITUTE FOR MOLECULAR SCIENCE:
          KAZUYA ISHIMURA, MICHIO KATOUDA, AND SHIGERU NAGASE
     UNIVERSITY OF NOTRE DAME: DAN CHIPMAN
     KYUSHU UNIVERSITY:
          HARUYUKI NAKANO,
          FENG LONG GU, JACEK KORCHOWIEC, MARCIN MAKOWSKI, AND YURIKO AOKI,
          HIROTOSHI MORI AND EISAKU MIYOSHI
     PENNSYLVANIA STATE UNIVERSITY:
          TZVETELIN IORDANOV, CHET SWALINA, JONATHAN SKONE,
          SHARON HAMMES-SCHIFFER
     WASEDA UNIVERSITY:
          MASATO KOBAYASHI, TOMOKO AKAMA, TSUGUKI TOUMA,
          TAKESHI YOSHIKAWA, YASUHIRO IKABATA, HIROMI NAKAI
     NANJING UNIVERSITY: SHUHUA LI
     UNIVERSITY OF NEBRASKA:
          PEIFENG SU, DEJUN SI, NANDUN THELLAMUREGE, YALI WANG, HUI LI
     UNIVERSITY OF ZURICH:
          ROBERTO PEVERATI, KIM BALDRIDGE
     N. COPERNICUS UNIVERSITY AND JACKSON STATE UNIVERSITY:
          MARIA BARYSZ


 PARALLEL VERSION RUNNING ON     4 PROCESSORS IN     4 NODES.

 EXECUTION OF GAMESS BEGUN Thu Nov 16 14:37:47 2023

            ECHO OF THE FIRST FEW INPUT CARDS -
 INPUT CARD> $CONTRL  scftyp=mcscf $END                                                     
 INPUT CARD> $basis gbasis=n31 ngauss=6 ndfunc=1 $end                                       
 INPUT CARD>                                                                                
 INPUT CARD>! norder=0 Порядок МО уже не меняется- задан ответ CASSCF исходной геометрии    
 INPUT CARD>! $Guess guess=moread norb=17 norder=0  prtmo=.t. $end                          
 INPUT CARD>                                                                                
 INPUT CARD> $dEt group=cs  ncore=13 nact=4 neLs=4 SZ=0 nstate=1 $end                       
 INPUT CARD> $DATA                                                                          
 INPUT CARD> C4H6                                                                           
 INPUT CARD>Cs                                                                              
 INPUT CARD>                                                                                
 INPUT CARD>CARBON      6.0     -0.552230614        -0.080695679        -0.735582760        
 INPUT CARD>CARBON      6.0      0.517107777         0.075564270        -1.534451895        
 INPUT CARD>HYDROGEN    1.0     -1.523945524        -0.222690135        -1.205477481        
 INPUT CARD>HYDROGEN    1.0      0.492785102         0.731633825        -2.398470587        
 INPUT CARD>HYDROGEN    1.0      1.449362035        -0.447844877        -1.348735592        
 INPUT CARD> $END                                                                           
 INPUT CARD>--- NATURAL ORBITALS OF MCSCF --- GENERATED AT Thu Nov 16 14:28:23 2023         
 INPUT CARD> C4H6                                                                           
 INPUT CARD>E(MCSCF)=     -154.9699510950, E(NUC)=      104.5079680865                      
 INPUT CARD> $VEC                                                                           
 INPUT CARD> 1  1 7.01425471E-01 1.95623233E-02 2.88634182E-05 0.00000000E+00-3.96799812E-05
 INPUT CARD> 1  2-6.16657454E-03-4.28999103E-04 0.00000000E+00-5.41304552E-04-1.42738626E-03
 INPUT CARD> 1  3-1.81383498E-03-1.69099963E-03 0.00000000E+00 1.25847285E-04 0.00000000E+00
 INPUT CARD> 1  4 7.01425471E-01 1.95623233E-02 2.88634182E-05 0.00000000E+00 3.96799812E-05
 INPUT CARD> 1  5-6.16657454E-03-4.28999103E-04 0.00000000E+00 5.41304552E-04-1.42738626E-03
 INPUT CARD> 1  6-1.81383498E-03-1.69099963E-03 0.00000000E+00-1.25847285E-04 0.00000000E+00
 INPUT CARD> 1  7 5.82606242E-02 1.33193906E-03 1.00257555E-04 0.00000000E+00 1.29925609E-04
 INPUT CARD> 1  8 2.13624350E-03-6.85513851E-04 0.00000000E+00-1.01081200E-03-2.80327128E-04
 INPUT CARD> 1  9-2.43760484E-04-2.58519855E-04 0.00000000E+00 1.79999985E-05 0.00000000E+00
 INPUT CARD> 1 10 5.82606242E-02 1.33193906E-03 1.00257555E-04 0.00000000E+00-1.29925609E-04
 INPUT CARD> 1 11 2.13624350E-03-6.85513851E-04 0.00000000E+00 1.01081200E-03-2.80327128E-04
 INPUT CARD> 1 12-2.43760484E-04-2.58519855E-04 0.00000000E+00-1.79999985E-05 0.00000000E+00
 INPUT CARD> 1 13-1.44976621E-04 1.27326169E-03-1.44976621E-04 1.27326169E-03-1.05666848E-04
 INPUT CARD> 1 14-8.98236009E-05-1.05666848E-04-8.98236009E-05-1.44298609E-05 2.95181871E-04
 INPUT CARD> 1 15-1.44298609E-05 2.95181871E-04                                             
 INPUT CARD> 2  1 7.01166790E-01 1.95227964E-02 1.01066879E-04 0.00000000E+00-2.26680011E-04
 INPUT CARD> 2  2-1.19523107E-02-1.45632475E-03 0.00000000E+00 1.68430274E-03-1.08543718E-03
 INPUT CARD> 2  3-1.57317645E-03-7.03551020E-04 0.00000000E+00 2.83285997E-04 0.00000000E+00
 INPUT CARD> 2  4-7.01166790E-01-1.95227964E-02-1.01066879E-04 0.00000000E+00-2.26680011E-04
 INPUT CARD> 2  5 1.19523107E-02 1.45632475E-03 0.00000000E+00 1.68430274E-03 1.08543718E-03
 INPUT CARD> 2  6 1.57317645E-03 7.03551020E-04 0.00000000E+00 2.83285997E-04 0.00000000E+00
 INPUT CARD> 2  7 6.44390503E-02 1.64985213E-03 1.27633695E-04 0.00000000E+00 4.13134816E-05
 INPUT CARD> 2  8 2.99859697E-03-7.47189478E-04 0.00000000E+00-1.21947771E-03-4.67867267E-04
 INPUT CARD> 2  9-1.78628420E-04-3.09377864E-04 0.00000000E+00-3.53453935E-05 0.00000000E+00
 INPUT CARD> 2 10-6.44390503E-02-1.64985213E-03-1.27633695E-04 0.00000000E+00 4.13134816E-05
 INPUT CARD> 2 11-2.99859697E-03 7.47189478E-04 0.00000000E+00-1.21947771E-03 4.67867267E-04
 INPUT CARD> 2 12 1.78628420E-04 3.09377864E-04 0.00000000E+00-3.53453935E-05 0.00000000E+00
 INPUT CARD> 2 13-6.60019092E-05 1.04999528E-03 6.60019092E-05-1.04999528E-03-8.11395026E-05
 INPUT CARD> 2 14-1.76964364E-04 8.11395026E-05 1.76964364E-04-3.78438713E-05 1.44438526E-04
    1000000 WORDS OF MEMORY AVAILABLE

     BASIS OPTIONS
     -------------
     GBASIS=N31          IGAUSS=       6      POLAR=POPN31  
     NDFUNC=       1     NFFUNC=       0     DIFFSP=       F
     NPFUNC=       0      DIFFS=       F     BASNAM=        


     RUN TITLE
     ---------
  C4H6                                                                           

 THE POINT GROUP OF THE MOLECULE IS CS      
 THE ORDER OF THE PRINCIPAL AXIS IS     0

 ATOM      ATOMIC                      COORDINATES (BOHR)
           CHARGE         X                   Y                   Z
 CARBON      6.0    -1.0435645425       -0.1524927217        1.3900498577
 CARBON      6.0    -1.0435645425       -0.1524927217       -1.3900498577
 CARBON      6.0     0.9771920046        0.1427957648        2.8996936229
 CARBON      6.0     0.9771920046        0.1427957648       -2.8996936229
 HYDROGEN    1.0    -2.8798394606       -0.4208233353        2.2780221235
 HYDROGEN    1.0    -2.8798394606       -0.4208233353       -2.2780221235
 HYDROGEN    1.0     0.9312288136        1.3825874526        4.5324521990
 HYDROGEN    1.0     0.9312288136        1.3825874526       -4.5324521990
 HYDROGEN    1.0     2.7388971032       -0.8463041025        2.5487406988
 HYDROGEN    1.0     2.7388971032       -0.8463041025       -2.5487406988

          INTERNUCLEAR DISTANCES (ANGS.)
          ------------------------------

                1 CARB       2 CARB       3 CARB       4 CARB       5 HYDR  

   1 CARB    0.0000000    1.4711655 *  1.3439098 *  2.5141518 *  1.0886659 *
   2 CARB    1.4711655 *  0.0000000    2.5141518 *  1.3439098 *  2.1753407 *
   3 CARB    1.3439098 *  2.5141518 *  0.0000000    3.0689038    2.0887983 *
   4 CARB    2.5141518 *  1.3439098 *  3.0689038    0.0000000    3.4295870  
   5 HYDR    1.0886659 *  2.1753407 *  2.0887983 *  3.4295870    0.0000000  
   6 HYDR    2.1753407 *  1.0886659 *  3.4295870    2.0887983 *  2.4109550 *
   7 HYDR    2.1253548 *  3.4020916    1.0851484 *  3.9873422    2.5300532 *
   8 HYDR    3.4020916    2.1253548 *  3.9873422    1.0851484 *  4.2386765  
   9 HYDR    2.1253536 *  2.9129975 *  1.0851478 *  3.0750326    2.9852597 *
  10 HYDR    2.9129975 *  2.1253536 *  3.0750326    1.0851478 *  3.9262268  

                6 HYDR       7 HYDR       8 HYDR       9 HYDR      10 HYDR  

   1 CARB    2.1753407 *  2.1253548 *  3.4020916    2.1253536 *  2.9129975 *
   2 CARB    1.0886659 *  3.4020916    2.1253548 *  2.9129975 *  2.1253536 *
   3 CARB    3.4295870    1.0851484 *  3.9873422    1.0851478 *  3.0750326  
   4 CARB    2.0887983 *  3.9873422    1.0851484 *  3.0750326    1.0851478 *
   5 HYDR    2.4109550 *  2.5300532 *  4.2386765    2.9852597 *  3.9262268  
   6 HYDR    0.0000000    4.2386765    2.5300532 *  3.9262268    2.9852597 *
   7 HYDR    4.2386765    0.0000000    4.7969412    1.8461184 *  4.0432368  
   8 HYDR    2.5300532 *  4.7969412    0.0000000    4.0432368    1.8461184 *
   9 HYDR    3.9262268    1.8461184 *  4.0432368    0.0000000    2.6974712 *
  10 HYDR    2.9852597 *  4.0432368    1.8461184 *  2.6974712 *  0.0000000  

  * ... LESS THAN  3.000


     ATOMIC BASIS SET
     ----------------
 THE CONTRACTED PRIMITIVE FUNCTIONS HAVE BEEN UNNORMALIZED
 THE CONTRACTED BASIS FUNCTIONS ARE NOW NORMALIZED TO UNITY

  SHELL TYPE  PRIMITIVE        EXPONENT          CONTRACTION COEFFICIENT(S)

 CARBON    

      5   S       1          3047.5248800    0.001834737132
      5   S       2           457.3695180    0.014037322813
      5   S       3           103.9486850    0.068842622264
      5   S       4            29.2101553    0.232184443216
      5   S       5             9.2866630    0.467941348435
      5   S       6             3.1639270    0.362311985337

      6   L       7             7.8682723   -0.119332419775    0.068999066591
      6   L       8             1.8812885   -0.160854151696    0.316423960957
      6   L       9             0.5442493    1.143456437840    0.744308290898

      7   L      10             0.1687145    1.000000000000    1.000000000000

      8   D      11             0.8000000    1.000000000000

 CARBON    

     13   S      12          3047.5248800    0.001834737132
     13   S      13           457.3695180    0.014037322813
     13   S      14           103.9486850    0.068842622264
     13   S      15            29.2101553    0.232184443216
     13   S      16             9.2866630    0.467941348435
     13   S      17             3.1639270    0.362311985337

     14   L      18             7.8682723   -0.119332419775    0.068999066591
     14   L      19             1.8812885   -0.160854151696    0.316423960957
     14   L      20             0.5442493    1.143456437840    0.744308290898

     15   L      21             0.1687145    1.000000000000    1.000000000000

     16   D      22             0.8000000    1.000000000000

 HYDROGEN  

     19   S      23            18.7311370    0.033494604338
     19   S      24             2.8253944    0.234726953484
     19   S      25             0.6401217    0.813757326146

     20   S      26             0.1612778    1.000000000000

 HYDROGEN  

     23   S      27            18.7311370    0.033494604338
     23   S      28             2.8253944    0.234726953484
     23   S      29             0.6401217    0.813757326146

     24   S      30             0.1612778    1.000000000000

 HYDROGEN  

     27   S      31            18.7311370    0.033494604338
     27   S      32             2.8253944    0.234726953484
     27   S      33             0.6401217    0.813757326146

     28   S      34             0.1612778    1.000000000000

 TOTAL NUMBER OF BASIS SET SHELLS             =   28
 NUMBER OF CARTESIAN GAUSSIAN BASIS FUNCTIONS =   72
 NUMBER OF ELECTRONS                          =   30
 CHARGE OF MOLECULE                           =    0
 SPIN MULTIPLICITY                            =    1
 NUMBER OF OCCUPIED ORBITALS (ALPHA)          =   15
 NUMBER OF OCCUPIED ORBITALS (BETA )          =   15
 TOTAL NUMBER OF ATOMS                        =   10
 THE NUCLEAR REPULSION ENERGY IS      104.3421852331

     $NEO OPTIONS
     ------------
     NUNIQN=       0     BASNUC=DZSNB        NEOSCF=NONE    
     NEOCI =NONE         NUMULT=       2     NUCST =       1
     NAUXNB=       0     VNUCEX=       F     NUCOPT=       F
     NTAUXB=       0     NEOHSS=       F     HSSINI=READH   
     HSSUPD=POWELLUP     DIRNUC=       F     SYMNUC=       F
     QMTOLN= 0.0E+00     USRDEX=       F
     POSNEO=       F     POSPRP=       F
     NEONCI=       F     LOCORB=       0

     $CONTRL OPTIONS
     ---------------
 SCFTYP=MCSCF        RUNTYP=ENERGY       EXETYP=RUN     
 MPLEVL=       0     CITYP =NONE         CCTYP =NONE         VBTYP =NONE    
 DFTTYP=NONE         TDDFT =NONE    
 MULT  =       1     ICHARG=       0     NZVAR =       0     COORD =UNIQUE  
 PP    =NONE         RELWFN=NONE         LOCAL =NONE         NUMGRD=       F
 ISPHER=      -1     NOSYM =       0     MAXIT =      30     UNITS =ANGS    
 PLTORB=       F     MOLPLT=       F     AIMPAC=       F     FRIEND=        
 NPRINT=       7     IREST =       0     GEOM  =INPUT   
 NORMF =       0     NORMP =       0     ITOL  =      20     ICUT  =       9
 INTTYP=BEST         GRDTYP=BEST         QMTTOL= 1.0E-06

     $SYSTEM OPTIONS
     ---------------
  REPLICATED MEMORY=     1000000 WORDS (ON EVERY NODE).
 DISTRIBUTED MEMDDI=           0 MILLION WORDS IN AGGREGATE,
 MEMDDI DISTRIBUTED OVER   4 PROCESSORS IS           0 WORDS/PROCESSOR.
 TOTAL MEMORY REQUESTED ON EACH PROCESSOR=     1000000 WORDS.
 TIMLIM=      525600.00 MINUTES, OR     365.0 DAYS.
 PARALL= T  BALTYP=  DLB     KDIAG=    0  COREFL= F
 MXSEQ2=     300 MXSEQ3=     150

          ----------------
          PROPERTIES INPUT
          ----------------

     MOMENTS            FIELD           POTENTIAL          DENSITY
 IEMOM =       1   IEFLD =       0   IEPOT =       0   IEDEN =       0
 WHERE =COMASS     WHERE =NUCLEI     WHERE =NUCLEI     WHERE =NUCLEI  
 OUTPUT=BOTH       OUTPUT=BOTH       OUTPUT=BOTH       OUTPUT=BOTH    
 IEMINT=       0   IEFINT=       0                     IEDINT=       0
                                                       MORB  =       0

     -------------------------------
     INTEGRAL TRANSFORMATION OPTIONS
     -------------------------------
     NWORD  =            0
     CUTOFF = 1.0E-09     MPTRAN =       0
     DIRTRF =       F     AOINTS =DUP     

          ----------------------
          MCSCF INPUT PARAMETERS
          ----------------------
 CONVERGER SELECTION: FOCAS = F  SOSCF = T  FULLNR = F  QUD = F  JACOBI = F
 SECULAR EQUATION METHOD CISTEP = ALDET   
 --- GENERAL INPUT OPTIONS:
 MAXIT =      60  MICIT =       5  ACURCY= 1.000E-05
 DAMP  =   0.000  CANONC=       T  ENGTOL= 1.000E-10
 EKT   =       F  NPUNCH=       2  NWORD =         0
 REGENERATE CI AFTER CONVERGENCE = NONE    
 DIABATIZATION AFTER CONVERGENCE =        F
 --- INPUT FOR SOSCF CONVERGER:
 FORS  =       T  NOFO  =       1

          ----------------------
          INTEGRAL INPUT OPTIONS
          ----------------------
 NOPK  =       1 NORDER=       0 SCHWRZ=       T

     ------------------------------------------
     THE POINT GROUP IS CS , NAXIS= 0, ORDER= 2
     ------------------------------------------

     DIMENSIONS OF THE SYMMETRY SUBSPACES ARE
 A'  =   36     A'' =   36

 ..... DONE SETTING UP THE RUN .....
 CPU     0: STEP CPU TIME=     0.17 TOTAL CPU TIME=        0.2 (    0.0 MIN)
 TOTAL WALL CLOCK TIME=        0.2 SECONDS, CPU UTILIZATION IS 100.00%

          ********************
          1 ELECTRON INTEGRALS
          ********************
 TIME TO DO   DIPOLE INTEGRALS=      0.02
 ...... END OF ONE-ELECTRON INTEGRALS ......
 CPU     0: STEP CPU TIME=     0.02 TOTAL CPU TIME=        0.2 (    0.0 MIN)
 TOTAL WALL CLOCK TIME=        0.2 SECONDS, CPU UTILIZATION IS 100.00%

          -------------
          GUESS OPTIONS
          -------------
          GUESS =HUCKEL            NORB  =       0          NORDER=       0
          MIX   =       F          PRTMO =       F          PUNMO =       F
          TOLZ  = 1.0E-08          TOLE  = 1.0E-05
          SYMDEN=       F          PURIFY=       F

 INITIAL GUESS ORBITALS GENERATED BY HUCKEL   ROUTINE.
 HUCKEL GUESS REQUIRES     47668 WORDS.

 GUESS=HUCKEL IS USUALLY A VERY BAD IDEA FOR SCFTYP=MCSCF   
 YOU PROBABLY SHOULD USE GUESS=MOREAD FOR THIS RUN!

 SYMMETRIES FOR INITIAL GUESS ORBITALS FOLLOW.   BOTH SET(S).
    15 ORBITALS ARE OCCUPIED (    4 CORE ORBITALS).
     5=A'       6=A''      7=A'       8=A''      9=A'      10=A'      11=A'' 
    12=A'      13=A''     14=A'      15=A''     16=A'      17=A''     18=A'  
    19=A''     20=A'      21=A''     22=A''     23=A'      24=A'      25=A'  
 ...... END OF INITIAL ORBITAL SELECTION ......
 CPU     0: STEP CPU TIME=     0.06 TOTAL CPU TIME=        0.2 (    0.0 MIN)
 TOTAL WALL CLOCK TIME=        0.2 SECONDS, CPU UTILIZATION IS 100.00%

                    ----------------------
                    AO INTEGRAL TECHNOLOGY
                    ----------------------
     S,P,L SHELL ROTATED AXIS INTEGRALS, REPROGRAMMED BY
        KAZUYA ISHIMURA (IMS) AND JOSE SIERRA (SYNSTAR).
     S,P,D,L SHELL ROTATED AXIS INTEGRALS PROGRAMMED BY
        KAZUYA ISHIMURA (INSTITUTE FOR MOLECULAR SCIENCE).
     S,P,D,F,G SHELL TO TOTAL QUARTET ANGULAR MOMENTUM SUM 5,
        ERIC PROGRAM BY GRAHAM FLETCHER (ELORET AND NASA ADVANCED
        SUPERCOMPUTING DIVISION, AMES RESEARCH CENTER).
     S,P,D,F,G,L SHELL GENERAL RYS QUADRATURE PROGRAMMED BY
        MICHEL DUPUIS (PACIFIC NORTHWEST NATIONAL LABORATORY).

          --------------------
          2 ELECTRON INTEGRALS
          --------------------

 THE -PK- OPTION IS OFF, THE INTEGRALS ARE NOT IN SUPERMATRIX FORM.
 STORING   15000 INTEGRALS/RECORD ON DISK, USING 12 BYTES/INTEGRAL.
 TWO ELECTRON INTEGRAL EVALUATION REQUIRES   90802 WORDS OF MEMORY.
 SCHWARZ INEQUALITY OVERHEAD:      2627 INTEGRALS, T=        0.01
 II,JST,KST,LST =  1  1  1  1 NREC =         1 INTLOC =    1
 II,JST,KST,LST =  2  1  1  1 NREC =         1 INTLOC =    1
 II,JST,KST,LST =  3  1  1  1 NREC =         1 INTLOC =    1
 II,JST,KST,LST =  4  1  1  1 NREC =         1 INTLOC =    1
 II,JST,KST,LST =  5  1  1  1 NREC =         1 INTLOC =    1
 II,JST,KST,LST =  6  1  1  1 NREC =         1 INTLOC =    4
 II,JST,KST,LST =  7  1  1  1 NREC =         1 INTLOC =  305
 II,JST,KST,LST =  8  1  1  1 NREC =         1 INTLOC = 2380
 II,JST,KST,LST =  9  1  1  1 NREC =         2 INTLOC =  183
 II,JST,KST,LST = 10  1  1  1 NREC =         2 INTLOC =  183
 II,JST,KST,LST = 11  1  1  1 NREC =         2 INTLOC =  183
 II,JST,KST,LST = 12  1  1  1 NREC =         2 INTLOC =  183
 II,JST,KST,LST = 13  1  1  1 NREC =         2 INTLOC =  183
 II,JST,KST,LST = 14  1  1  1 NREC =         2 INTLOC =14441
 II,JST,KST,LST = 15  1  1  1 NREC =         9 INTLOC = 5618
 II,JST,KST,LST = 16  1  1  1 NREC =        20 INTLOC =13737
 II,JST,KST,LST = 17  1  1  1 NREC =        50 INTLOC = 3695
 II,JST,KST,LST = 18  1  1  1 NREC =        50 INTLOC = 3695
 II,JST,KST,LST = 19  1  1  1 NREC =        50 INTLOC = 3695
 II,JST,KST,LST = 20  1  1  1 NREC =        57 INTLOC = 7561
 II,JST,KST,LST = 21  1  1  1 NREC =        65 INTLOC =13667
 II,JST,KST,LST = 22  1  1  1 NREC =        65 INTLOC =13667
 II,JST,KST,LST = 23  1  1  1 NREC =        65 INTLOC =13667
 II,JST,KST,LST = 24  1  1  1 NREC =        73 INTLOC = 3378
 II,JST,KST,LST = 25  1  1  1 NREC =        83 INTLOC = 1069
 II,JST,KST,LST = 26  1  1  1 NREC =        83 INTLOC = 1069
 II,JST,KST,LST = 27  1  1  1 NREC =        83 INTLOC = 1069
 II,JST,KST,LST = 28  1  1  1 NREC =        93 INTLOC = 3263
 SCHWARZ INEQUALITY TEST SKIPPED        3895 INTEGRAL BLOCKS.
 TOTAL NUMBER OF NONZERO TWO-ELECTRON INTEGRALS =             1561811
        105 INTEGRAL RECORDS WERE STORED ON DISK FILE  8.
  ...... END OF TWO-ELECTRON INTEGRALS .....
 STEP CPU TIME =     0.46 TOTAL CPU TIME =        0.7 (    0.0 MIN)
 TOTAL WALL CLOCK TIME=        0.7 SECONDS, CPU UTILIZATION IS 100.00%

          -----------------
          MCSCF CALCULATION
          -----------------

 ----- NUCLEAR ENERGY ----- =       104.3421852331

     --------------------------------------------------
          AMES LABORATORY DETERMINANTAL FULL CI
     PROGRAM WRITTEN BY JOE IVANIC AND KLAUS RUEDENBERG
     --------------------------------------------------

 THE POINT GROUP                  =   CS      
 THE STATE SYMMETRY               =   A'      
 NUMBER OF CORE ORBITALS          =   13
 NUMBER OF ACTIVE ORBITALS        =    4
 NUMBER OF ALPHA ELECTRONS        =   15 (   2 ACTIVE)
 NUMBER OF BETA ELECTRONS         =   15 (   2 ACTIVE)
 NUMBER OF OCCUPIED ORBITALS      =   17
 NUMBER OF CI STATES REQUESTED    =    1
 NUMBER OF CI STARTING VECTORS    =    1
 MAX. NO. OF CI EXPANSION VECTORS =   10
 SIZE OF INITIAL CI GUESS MATRIX  =  300
 MAX. NO. OF CI ITERS/STATE       =  100
 CI DIAGONALIZATION CRITERION     = 1.00E-05
 PURE SPIN STATE AVERAGED 1E- AND 2E- DENSITY MATRIX OPTION=.T.
 STATE=   1 DM2 WEIGHT=   1.00000

 CORRELATION ENERGY ANALYSIS      =    F

 SYMMETRIES FOR THE  13 CORE,   4 ACTIVE ARE

     CORE= A'    A''   A'    A''   A'    A''   A'    A''   A'    A'  
           A''   A'    A'' 

   ACTIVE= A'    A''   A'    A'' 
 OPENING FILE DAFL30 WITH      81 LOGICAL RECORDS OF    5184 WORDS
 WITH A MAXIMUM OF         243 PHYSICAL RECORDS OF    2048 WORDS

          ------------------------------
          CASSCF INTEGRAL TRANSFORMATION
          ------------------------------
 AO INTEGRALS WILL BE READ IN FROM DISK...

 NUMBER OF CORE MOLECULAR ORBITALS     =    13
 NUMBER OF OCCUPIED MOLECULAR ORBITALS =    17
 TOTAL NUMBER OF MOLECULAR ORBITALS    =    72
 TOTAL NUMBER OF ATOMIC ORBITALS       =    72
 MEMORY WHICH WOULD BE NEEDED FOR SINGLE PASS TRANSFORMATION =     856288

 ----- CHOOSING THREE STEPS TRANSFORMATION -----
 NUMBER OF WORDS USED      =     295210
 NUMBER OF WORDS AVAILABLE =    1000000
 NUMBER OF PASSES          =          4
 PASS #   1 COMPLETED IN         0.1 SECONDS.
 PASS #   2 IS ASSIGNED TO A DIFFERENT PROCESSOR.
 PASS #   3 IS ASSIGNED TO A DIFFERENT PROCESSOR.
 PASS #   4 IS ASSIGNED TO A DIFFERENT PROCESSOR.

 ----- NUCLEAR REPULSION ENERGY =    104.34218523
 ----- FROZEN CORE ENERGY       =   -255.40049779

 ... SYMMETRY ...           CPU =    0.06
 ... (PQ|RS) -> (PQ|KL) ... CPU =    0.15
 ... (PQ|KL) -> (IJ|KL) ... CPU =    0.01

 NUMBER OF (PQ|KL) INTEGRALS WRITTEN      25744
 NUMBER OF (IJ|KL) INTEGRALS WRITTEN         31
 ..... END OF CAS INTEGRAL TRANSFORMATION .....
 CPU     0: STEP CPU TIME=     0.28 TOTAL CPU TIME=        1.0 (    0.0 MIN)
 TOTAL WALL CLOCK TIME=        1.0 SECONDS, CPU UTILIZATION IS 100.00%

     --------------------------------------------------
          AMES LABORATORY DETERMINANTAL FULL CI
     PROGRAM WRITTEN BY JOE IVANIC AND KLAUS RUEDENBERG
     --------------------------------------------------

 THE NUMBER OF DETERMINANTS HAVING SPACE SYMMETRY A' 
 IN POINT GROUP CS   WITH SZ=  0.0 IS             20
 THE DETERMINANT FULL CI REQUIRES          175306 WORDS
 SMALL CI MATRIX, JUST USING INCORE DIAGONALIZATION...

 CI EIGENVECTORS WILL BE LABELED IN GROUP=CS      
 PRINTING ALL NON-ZERO CI COEFFICIENTS

 STATE   1  ENERGY=      -154.4979409327  S=  0.00  SZ=  0.00  SPACE SYM=A'  

ALPHA |BETA  | COEFFICIENT
------|------|------------
 1100 | 1100 |   0.9468932
 1010 | 1010 |  -0.2431742
 0110 | 1001 |  -0.0830937
 1001 | 0110 |  -0.0830937
 1100 | 0110 |  -0.0779310
 0110 | 1100 |  -0.0779310
 0101 | 0101 |  -0.0646502
 1001 | 1001 |  -0.0552711
 0101 | 1010 |  -0.0502517
 1010 | 0101 |  -0.0502517
 1100 | 1001 |   0.0386734
 1001 | 1100 |   0.0386734
 0011 | 1100 |   0.0328420
 1100 | 0011 |   0.0328420
 0011 | 0011 |   0.0244007
 0110 | 0110 |  -0.0125462
 0011 | 0110 |  -0.0075023
 0110 | 0011 |  -0.0075023
 1001 | 0011 |  -0.0015915
 0011 | 1001 |  -0.0015915
 ..... DONE WITH DETERMINANT CI COMPUTATION .....
 CPU     0: STEP CPU TIME=     0.02 TOTAL CPU TIME=        1.0 (    0.0 MIN)
 TOTAL WALL CLOCK TIME=        1.0 SECONDS, CPU UTILIZATION IS 100.00%

     --------------------------------------------------
      ONE AND TWO PARTICLE DENSITY MATRIX COMPUTATION
     PROGRAM WRITTEN BY JOE IVANIC AND KLAUS RUEDENBERG
     --------------------------------------------------

      30383 WORDS WILL BE USED TO FORM THE DENSITIES
 THE DENSITIES ARE STATE AVERAGED OVER   1 ROOT(S)
 STATE=   1   ENERGY=     -154.4979409327   WEIGHT= 1.00000   S=  0.00
 SIEVING THE A'   SYMMETRY NONZERO DENSITY ELEMENTS IN GROUP CS      
         31 NONZERO DM2 ELEMENTS WRITTEN IN       1 RECORDS TO FILE 15
 ..... DONE WITH 1 AND 2 PARTICLE DENSITY MATRIX .....
 CPU     0: STEP CPU TIME=     0.01 TOTAL CPU TIME=        1.0 (    0.0 MIN)
 TOTAL WALL CLOCK TIME=        1.0 SECONDS, CPU UTILIZATION IS 100.00%

          --------------------------------------
          APPROXIMATE SECOND-ORDER MCSCF PROGRAM
          --------------------------------------
          PROGRAM WRITTEN BY G.CHABAN, A.MARQUEZ, AND M.DUPUIS

  NUMBER OF WORDS NEEDED     =      88397
  NUMBER AVAILABLE           =    1000000

 ----- GAMMA(IJKL)*(PQ|KL) PRODUCTS ----- CPU TIME =      0.002
 ----- ORBITAL SYMMETRY             ----- CPU TIME =      0.003
 ----- FOCK OPERATORS CONSTRUCTION  ----- CPU TIME =      0.021
 ----- WARNING : CORE-ACTIVE GAP    =    0.15085
     MICIT =   1 ASYMM =    0.440159 ROTMAX =    0.086109
 ----- EFFECTIVE FOCK + ROTATE ORBS ----- CPU TIME =      0.013
     MICIT =   2 ASYMM =    0.118187 ROTMAX =    0.040369
     MICIT =   3 ASYMM =    0.109059 ROTMAX =    0.088884
     MICIT =   4 ASYMM =    0.121412 ROTMAX =    0.080065
     MICIT =   5 ASYMM =    0.155814 ROTMAX =    0.088304
 ..... DONE WITH CASSCF ORBITAL UPDATE .....
 CPU     0: STEP CPU TIME=     0.11 TOTAL CPU TIME=        1.1 (    0.0 MIN)
 TOTAL WALL CLOCK TIME=        1.1 SECONDS, CPU UTILIZATION IS 100.00%

 ITER     TOTAL ENERGY      DEL(E)  LAGRANGIAN ASYMMETRY   SQCDF  MICIT   DAMP
   1     -154.497940933 -0.497940933  0.440159   14   10 8.611E-02  5   0.0000
       ----------START APPROXIMATE SECOND ORDER MCSCF----------
   2     -154.799137166 -0.301196233  0.095525   42    3 1.200E-01  1   0.0000
   3     -154.858315551 -0.059178385  0.074655   44    3 4.061E-01  1   0.0000
   4     -154.881518719 -0.023203168  0.094553   16    1 5.228E-02  1   0.0000
   5     -154.892860881 -0.011342161  0.043669   16    3 1.204E-02  1   0.0000
   6     -154.895230951 -0.002370070  0.025521   44    3 4.622E-03  1   0.0000
   7     -154.896438857 -0.001207906  0.012847   16    3 1.298E-03  1   0.0000
   8     -154.896869585 -0.000430728  0.008960   16    3 3.593E-04  1   0.0000
   9     -154.897038353 -0.000168768  0.003891   23    3 2.124E-04  1   0.0000
  10     -154.897093847 -0.000055494  0.003286   16    3 6.802E-05  1   0.0000
  11     -154.897119369 -0.000025523  0.002206   16    1 2.626E-05  1   0.0000
  12     -154.897128934 -0.000009565  0.003658   16    3 6.634E-06  1   0.0000
  13     -154.897132292 -0.000003358  0.000605   16    3 2.522E-06  1   0.0000
  14     -154.897133455 -0.000001163  0.000662   16    7 9.187E-07  1   0.0000
  15     -154.897134013 -0.000000558  0.000220   23    3 6.093E-07  1   0.0000
  16     -154.897134234 -0.000000221  0.000341   16    3 3.121E-07  1   0.0000
  17     -154.897134318 -0.000000084  0.000130   16    3 1.079E-07  1   0.0000
  18     -154.897134357 -0.000000039  0.000057   18    3 6.619E-08  1   0.0000
  19     -154.897134374 -0.000000018  0.000036   16    3 1.897E-08  1   0.0000
  20     -154.897134380 -0.000000006  0.000025   16    7 6.919E-09  1   0.0000
  21     -154.897134383 -0.000000002  0.000015   25    3 2.847E-09  1   0.0000
  22     -154.897134384 -0.000000001  0.000015   16    3 8.197E-10  1   0.0000
  23     -154.897134384  0.000000000  0.000006   25    3 2.180E-10  1   0.0000

          --------------------
          LAGRANGIAN CONVERGED
          --------------------

 FINAL MCSCF ENERGY IS     -154.8971343840 AFTER  23 ITERATIONS

 -MCCI- BASED ON OPTIMIZED ORBITALS
 ----------------------------------

 PLEASE NOTE: IF THE ACTIVE ORBITALS ARE CANONICALIZED BELOW,
 THE FOLLOWING CI EXPANSION COEFFICIENTS AND THE DENSITY DO NOT
 CORRESPOND TO THE PRINTED ORBITALS.  THE PRINTED EXPANSIONS MATCH
 THE ORBITALS USED DURING THE LAST ITERATION.  IF YOU WISH TO SEE
 CI EXPANSIONS BASED ON THE CANONICAL (OR NATURAL) ORBITALS, YOU
 MUST RUN A CI CALCULATION WITH THAT ORBITAL CHOICE READ IN $VEC.

 CI EIGENVECTORS WILL BE LABELED IN GROUP=CS      
 PRINTING ALL NON-ZERO CI COEFFICIENTS

 STATE   1  ENERGY=      -154.8971343840  S=  0.00  SZ=  0.00  SPACE SYM=A'  

ALPHA |BETA  | COEFFICIENT
------|------|------------
 1100 | 1100 |   0.9195933
 1010 | 1010 |  -0.2692309
 1001 | 0110 |  -0.1332417
 0110 | 1001 |  -0.1332417
 0101 | 0101 |  -0.0930193
 0101 | 1010 |  -0.0881440
 1010 | 0101 |  -0.0881440
 0110 | 0110 |  -0.0773366
 1001 | 1001 |  -0.0639446
 0011 | 0011 |   0.0550728
 0011 | 1100 |   0.0450978
 1100 | 0011 |   0.0450978
 1001 | 1100 |   0.0401718
 1100 | 1001 |   0.0401718
 1100 | 0110 |  -0.0281860
 0110 | 1100 |  -0.0281860
 0011 | 0110 |   0.0076535
 0110 | 0011 |   0.0076535
 1001 | 0011 |  -0.0055068
 0011 | 1001 |  -0.0055068

 DENSITY MATRIX OVER ACTIVE MO-S

             1           2           3           4

    1    1.9076700
    2    0.0000000   1.7822065
    3    0.0591759   0.0000000   0.2199954
    4    0.0000000   0.0771759   0.0000000   0.0901281

 FORMING THE "STANDARD FOCK OPERATOR" USING INTEGRALS FROM DISK...
    13 FILLED,    4 ACTIVE, AND   55 VIRTUAL ORBITALS  WILL BE CANONICALIZED

          ----------------------
          MCSCF NATURAL ORBITALS
          ----------------------

                      1          2          3          4          5
                  -11.2258   -11.2250   -11.2131   -11.2131    -1.0732
                     A'         A''        A''        A'         A'  
    1  C  1  S    0.702623   0.702699  -0.045473  -0.042019  -0.130644
    2  C  1  S    0.019602   0.019599  -0.001266  -0.001399   0.249312
    3  C  1  X    0.000089   0.000162  -0.000105  -0.000201   0.048834
    4  C  1  Y   -0.000218  -0.000050   0.000030  -0.000028  -0.009215
    5  C  1  Z    0.000055  -0.000165  -0.000137  -0.000091  -0.018111
    6  C  1  S   -0.006332  -0.012199   0.002826   0.002767   0.174510
    7  C  1  X   -0.000374  -0.001669   0.000897   0.000979   0.002456
    8  C  1  Y   -0.000159  -0.000252  -0.000013   0.000184  -0.011826
    9  C  1  Z   -0.000710   0.001452   0.001298   0.000654  -0.003710
   10  C  1 XX   -0.001440  -0.001100  -0.000103  -0.000102   0.006751
   11  C  1 YY   -0.001810  -0.001570   0.000100   0.000014  -0.010583
   12  C  1 ZZ   -0.001695  -0.000695  -0.000209  -0.000029   0.012803
   13  C  1 XY    0.000055   0.000074  -0.000006   0.000024   0.002792
   14  C  1 XZ    0.000129   0.000281  -0.000054  -0.000070   0.002724
   15  C  1 YZ    0.000044   0.000009  -0.000055  -0.000060   0.001240
   16  C  2  S    0.702623  -0.702699   0.045473  -0.042019  -0.130644
   17  C  2  S    0.019602  -0.019599   0.001266  -0.001399   0.249312
   18  C  2  X    0.000089  -0.000162   0.000105  -0.000201   0.048834
   19  C  2  Y   -0.000218   0.000050  -0.000030  -0.000028  -0.009215
   20  C  2  Z   -0.000055  -0.000165  -0.000137   0.000091   0.018111
   21  C  2  S   -0.006332   0.012199  -0.002826   0.002767   0.174510
   22  C  2  X   -0.000374   0.001669  -0.000897   0.000979   0.002456
   23  C  2  Y   -0.000159   0.000252   0.000013   0.000184  -0.011826
   24  C  2  Z    0.000710   0.001452   0.001298  -0.000654   0.003710
   25  C  2 XX   -0.001440   0.001100   0.000103  -0.000102   0.006751
   26  C  2 YY   -0.001810   0.001570  -0.000100   0.000014  -0.010583
   27  C  2 ZZ   -0.001695   0.000695   0.000209  -0.000029   0.012803
   28  C  2 XY    0.000055  -0.000074   0.000006   0.000024   0.002792
   29  C  2 XZ   -0.000129   0.000281  -0.000054   0.000070  -0.002724
   30  C  2 YZ   -0.000044   0.000009  -0.000055   0.000060  -0.001240
   31  C  3  S    0.041594   0.045064   0.702542   0.702714  -0.091728
   32  C  3  S    0.000912   0.001153   0.019751   0.019646   0.173386
   33  C  3  X    0.000101   0.000119  -0.000068  -0.000111  -0.059573
   34  C  3  Y   -0.000062  -0.000052   0.000021  -0.000014  -0.016812
   35  C  3  Z    0.000187   0.000126  -0.000185  -0.000042  -0.048224
   36  C  3  S    0.002101   0.003040  -0.008700  -0.007844   0.126307
   37  C  3  X   -0.000926  -0.001059   0.000456   0.000471  -0.006615
   38  C  3  Y   -0.000279  -0.000383   0.000197   0.000036  -0.005519
   39  C  3  Z   -0.000839  -0.001279   0.000547   0.000208  -0.001320
   40  C  3 XX   -0.000249  -0.000403  -0.001319  -0.001380   0.006555
   41  C  3 YY   -0.000176  -0.000090  -0.001636  -0.001769  -0.003007
   42  C  3 ZZ   -0.000210  -0.000246  -0.001431  -0.001557   0.002842
   43  C  3 XY   -0.000002  -0.000056  -0.000046  -0.000049  -0.001235
   44  C  3 XZ    0.000015  -0.000028   0.000219   0.000221   0.007766
   45  C  3 YZ   -0.000005  -0.000006   0.000175   0.000178   0.005961
   46  C  4  S    0.041594  -0.045064  -0.702542   0.702714  -0.091728
   47  C  4  S    0.000912  -0.001153  -0.019751   0.019646   0.173386
   48  C  4  X    0.000101  -0.000119   0.000068  -0.000111  -0.059573
   49  C  4  Y   -0.000062   0.000052  -0.000021  -0.000014  -0.016812
   50  C  4  Z   -0.000187   0.000126  -0.000185   0.000042   0.048224
   51  C  4  S    0.002101  -0.003040   0.008700  -0.007844   0.126307
   52  C  4  X   -0.000926   0.001059  -0.000456   0.000471  -0.006615
   53  C  4  Y   -0.000279   0.000383  -0.000197   0.000036  -0.005519
   54  C  4  Z    0.000839  -0.001279   0.000547  -0.000208   0.001320
   55  C  4 XX   -0.000249   0.000403   0.001319  -0.001380   0.006555
   56  C  4 YY   -0.000176   0.000090   0.001636  -0.001769  -0.003007
   57  C  4 ZZ   -0.000210   0.000246   0.001431  -0.001557   0.002842
   58  C  4 XY   -0.000002   0.000056   0.000046  -0.000049  -0.001235
   59  C  4 XZ   -0.000015  -0.000028   0.000219  -0.000221  -0.007766
   60  C  4 YZ    0.000005  -0.000006   0.000175  -0.000178  -0.005961
   61  H  5  S   -0.000132  -0.000080  -0.000063  -0.000041   0.063552
   62  H  5  S    0.001323   0.001019  -0.000249   0.000147   0.008949
   63  H  6  S   -0.000132   0.000080   0.000063  -0.000041   0.063552
   64  H  6  S    0.001323  -0.001019   0.000249   0.000147   0.008949
   65  H  7  S   -0.000035  -0.000071  -0.000111  -0.000091   0.041708
   66  H  7  S    0.000315   0.000363   0.001403   0.001456   0.007187
   67  H  8  S   -0.000035   0.000071   0.000111  -0.000091   0.041708
   68  H  8  S    0.000315  -0.000363  -0.001403   0.001456   0.007187
   69  H  9  S   -0.000105  -0.000121  -0.000054  -0.000112   0.045029
   70  H  9  S    0.000102   0.000076   0.001641   0.001332   0.006746
   71  H 10  S   -0.000105   0.000121   0.000054  -0.000112   0.045029
   72  H 10  S    0.000102  -0.000076  -0.001641   0.001332   0.006746

                      6          7          8          9         10
                   -0.9817    -0.8315    -0.7177    -0.6454    -0.5976
                     A''        A'         A''        A'         A'  
    1  C  1  S   -0.088963   0.074226   0.085747  -0.008629   0.009305
    2  C  1  S    0.172072  -0.144815  -0.170429   0.020741  -0.019451
    3  C  1  X    0.066237   0.125447   0.070511   0.204611  -0.182534
    4  C  1  Y    0.009795   0.033580   0.005278  -0.017114  -0.047264
    5  C  1  Z    0.110847   0.131730  -0.102724  -0.153551  -0.210557
    6  C  1  S    0.126769  -0.138514  -0.164842   0.010660  -0.004120
    7  C  1  X   -0.008896   0.040170   0.067629   0.082989  -0.072019
    8  C  1  Y   -0.001392   0.017043   0.005991  -0.010927  -0.016964
    9  C  1  Z    0.020390   0.031941  -0.033682  -0.056513  -0.071914
   10  C  1 XX    0.010967  -0.001464  -0.012777  -0.008387  -0.000823
   11  C  1 YY   -0.006126   0.005859   0.005392  -0.000366   0.000146
   12  C  1 ZZ   -0.003470  -0.012434   0.003522   0.004215   0.005317
   13  C  1 XY    0.003214  -0.000310  -0.002819  -0.003553  -0.002667
   14  C  1 XZ    0.007220   0.008022   0.007905   0.003949  -0.007613
   15  C  1 YZ    0.000101  -0.000961   0.001187   0.000801  -0.000135
   16  C  2  S    0.088963   0.074226  -0.085747  -0.008629   0.009305
   17  C  2  S   -0.172072  -0.144815   0.170429   0.020741  -0.019451
   18  C  2  X   -0.066237   0.125447  -0.070511   0.204611  -0.182534
   19  C  2  Y   -0.009795   0.033580  -0.005278  -0.017114  -0.047264
   20  C  2  Z    0.110847  -0.131730  -0.102724   0.153551   0.210557
   21  C  2  S   -0.126769  -0.138514   0.164842   0.010660  -0.004120
   22  C  2  X    0.008896   0.040170  -0.067629   0.082989  -0.072019
   23  C  2  Y    0.001392   0.017043  -0.005991  -0.010927  -0.016964
   24  C  2  Z    0.020390  -0.031941  -0.033682   0.056513   0.071914
   25  C  2 XX   -0.010967  -0.001464   0.012777  -0.008387  -0.000823
   26  C  2 YY    0.006126   0.005859  -0.005392  -0.000366   0.000146
   27  C  2 ZZ    0.003470  -0.012434  -0.003522   0.004215   0.005317
   28  C  2 XY   -0.003214  -0.000310   0.002819  -0.003553  -0.002667
   29  C  2 XZ    0.007220  -0.008022   0.007905  -0.003949   0.007613
   30  C  2 YZ    0.000101   0.000961   0.001187  -0.000801   0.000135
   31  C  3  S   -0.126007  -0.102738  -0.060222   0.009812   0.000780
   32  C  3  S    0.237803   0.196978   0.115286  -0.016510  -0.006303
   33  C  3  X   -0.060118   0.053409   0.177625   0.043900   0.281208
   34  C  3  Y   -0.007058   0.013776   0.012440  -0.113439  -0.034384
   35  C  3  Z   -0.033100   0.037740   0.087835  -0.182342   0.089064
   36  C  3  S    0.208289   0.191152   0.122034  -0.038206   0.029736
   37  C  3  X   -0.005574   0.023183   0.066899   0.021912   0.112489
   38  C  3  Y   -0.002710   0.007397   0.007200  -0.048469  -0.016993
   39  C  3  Z   -0.005804   0.016101   0.043171  -0.069555   0.020449
   40  C  3 XX    0.009516   0.006248   0.001126   0.003836   0.004660
   41  C  3 YY   -0.003041   0.000788   0.003921  -0.003336   0.004873
   42  C  3 ZZ    0.002755   0.003838   0.004660  -0.003197  -0.000828
   43  C  3 XY   -0.003425  -0.007900  -0.010572  -0.002421  -0.011317
   44  C  3 XZ    0.007379  -0.002120  -0.008381   0.003393  -0.012710
   45  C  3 YZ    0.009034   0.010349   0.009688  -0.007547   0.004031
   46  C  4  S    0.126007  -0.102738   0.060222   0.009812   0.000780
   47  C  4  S   -0.237803   0.196978  -0.115286  -0.016510  -0.006303
   48  C  4  X    0.060118   0.053409  -0.177625   0.043900   0.281208
   49  C  4  Y    0.007058   0.013776  -0.012440  -0.113439  -0.034384
   50  C  4  Z   -0.033100  -0.037740   0.087835   0.182342  -0.089064
   51  C  4  S   -0.208289   0.191152  -0.122034  -0.038206   0.029736
   52  C  4  X    0.005574   0.023183  -0.066899   0.021912   0.112489
   53  C  4  Y    0.002710   0.007397  -0.007200  -0.048469  -0.016993
   54  C  4  Z   -0.005804  -0.016101   0.043171   0.069555  -0.020449
   55  C  4 XX   -0.009516   0.006248  -0.001126   0.003836   0.004660
   56  C  4 YY    0.003041   0.000788  -0.003921  -0.003336   0.004873
   57  C  4 ZZ   -0.002755   0.003838  -0.004660  -0.003197  -0.000828
   58  C  4 XY    0.003425  -0.007900   0.010572  -0.002421  -0.011317
   59  C  4 XZ    0.007379   0.002120  -0.008381  -0.003393   0.012710
   60  C  4 YZ    0.009034  -0.010349   0.009688   0.007547  -0.004031
   61  H  5  S    0.054637  -0.087600  -0.135161  -0.134736   0.040235
   62  H  5  S    0.007476  -0.035678  -0.061453  -0.095198   0.031399
   63  H  6  S   -0.054637  -0.087600   0.135161  -0.134736   0.040235
   64  H  6  S   -0.007476  -0.035678   0.061453  -0.095198   0.031399
   65  H  7  S    0.075541   0.100077   0.095579  -0.132665   0.027555
   66  H  7  S    0.019922   0.040568   0.050984  -0.089067   0.025497
   67  H  8  S   -0.075541   0.100077  -0.095579  -0.132665   0.027555
   68  H  8  S   -0.019922   0.040568  -0.050984  -0.089067   0.025497
   69  H  9  S    0.069048   0.100562   0.125051   0.061906   0.152503
   70  H  9  S    0.013301   0.045468   0.070569   0.042762   0.118132
   71  H 10  S   -0.069048   0.100562  -0.125051   0.061906   0.152503
   72  H 10  S   -0.013301   0.045468  -0.070569   0.042762   0.118132

                     11         12         13         14         15
                   -0.5731    -0.5161    -0.4998     1.9097     1.7857
                     A''        A''        A'         A'         A'' 
    1  C  1  S    0.014737   0.007484   0.014848  -0.004821  -0.014136
    2  C  1  S   -0.033132  -0.010145  -0.033128   0.010378   0.030316
    3  C  1  X   -0.146115   0.260647  -0.086191  -0.032535  -0.024867
    4  C  1  Y    0.009248   0.044017   0.022031   0.309056   0.231051
    5  C  1  Z   -0.002319   0.017302   0.281048  -0.034174  -0.040053
    6  C  1  S   -0.010396  -0.046311  -0.039517  -0.014791   0.089646
    7  C  1  X   -0.046992   0.141366  -0.066725  -0.034780  -0.059382
    8  C  1  Y   -0.005851   0.003942   0.043791   0.219204   0.201479
    9  C  1  Z   -0.010240  -0.020486   0.135690  -0.006231  -0.052623
   10  C  1 XX   -0.003582  -0.013573   0.021788   0.004751   0.008820
   11  C  1 YY    0.000956   0.001587  -0.000892   0.002012   0.003919
   12  C  1 ZZ    0.007357   0.004753  -0.017892  -0.006580  -0.013570
   13  C  1 XY    0.002790   0.000932  -0.000285   0.008426   0.011097
   14  C  1 XZ   -0.010882   0.024684  -0.003806  -0.003128  -0.006181
   15  C  1 YZ    0.002719   0.004901  -0.006420  -0.006504   0.014980
   16  C  2  S   -0.014737  -0.007484   0.014848  -0.004821   0.014136
   17  C  2  S    0.033132   0.010145  -0.033128   0.010378  -0.030316
   18  C  2  X    0.146115  -0.260647  -0.086191  -0.032535   0.024867
   19  C  2  Y   -0.009248  -0.044017   0.022031   0.309056  -0.231051
   20  C  2  Z   -0.002319   0.017302  -0.281048   0.034174  -0.040053
   21  C  2  S    0.010396   0.046311  -0.039517  -0.014791  -0.089646
   22  C  2  X    0.046992  -0.141366  -0.066725  -0.034780   0.059382
   23  C  2  Y    0.005851  -0.003942   0.043791   0.219204  -0.201479
   24  C  2  Z   -0.010240  -0.020486  -0.135690   0.006231  -0.052623
   25  C  2 XX    0.003582   0.013573   0.021788   0.004751  -0.008820
   26  C  2 YY   -0.000956  -0.001587  -0.000892   0.002012  -0.003919
   27  C  2 ZZ   -0.007357  -0.004753  -0.017892  -0.006580   0.013570
   28  C  2 XY   -0.002790  -0.000932  -0.000285   0.008426  -0.011097
   29  C  2 XZ   -0.010882   0.024684   0.003806   0.003128  -0.006181
   30  C  2 YZ    0.002719   0.004901   0.006420   0.006504   0.014980
   31  C  3  S    0.007563  -0.017723  -0.004885   0.002162   0.000117
   32  C  3  S   -0.016110   0.038287   0.009345  -0.005947   0.002588
   33  C  3  X   -0.042629  -0.239808   0.045582   0.064276   0.099708
   34  C  3  Y    0.173271   0.069027  -0.136537   0.172418   0.260826
   35  C  3  Z    0.249815  -0.040891  -0.154726  -0.115734  -0.185147
   36  C  3  S   -0.012192   0.026380   0.009618   0.003051   0.007125
   37  C  3  X   -0.038140  -0.124158   0.043300   0.051019   0.084773
   38  C  3  Y    0.080858   0.033966  -0.062845   0.122352   0.218754
   39  C  3  Z    0.125894   0.009354  -0.107301  -0.095187  -0.161768
   40  C  3 XX   -0.013239  -0.012246   0.019455   0.002727   0.003922
   41  C  3 YY    0.005321  -0.002761  -0.004153  -0.003554  -0.002427
   42  C  3 ZZ    0.012336   0.008582  -0.017584   0.000771   0.000340
   43  C  3 XY    0.004849   0.009019  -0.005722  -0.012568  -0.012048
   44  C  3 XZ   -0.003729   0.010917  -0.002856   0.001612   0.002668
   45  C  3 YZ    0.011133   0.001348  -0.010436  -0.010612  -0.007920
   46  C  4  S   -0.007563   0.017723  -0.004885   0.002162  -0.000117
   47  C  4  S    0.016110  -0.038287   0.009345  -0.005947  -0.002588
   48  C  4  X    0.042629   0.239808   0.045582   0.064276  -0.099708
   49  C  4  Y   -0.173271  -0.069027  -0.136537   0.172418  -0.260826
   50  C  4  Z    0.249815  -0.040891   0.154726   0.115734  -0.185147
   51  C  4  S    0.012192  -0.026380   0.009618   0.003051  -0.007125
   52  C  4  X    0.038140   0.124158   0.043300   0.051019  -0.084773
   53  C  4  Y   -0.080858  -0.033966  -0.062845   0.122352  -0.218754
   54  C  4  Z    0.125894   0.009354   0.107301   0.095187  -0.161768
   55  C  4 XX    0.013239   0.012246   0.019455   0.002727  -0.003922
   56  C  4 YY   -0.005321   0.002761  -0.004153  -0.003554   0.002427
   57  C  4 ZZ   -0.012336  -0.008582  -0.017584   0.000771  -0.000340
   58  C  4 XY   -0.004849  -0.009019  -0.005722  -0.012568   0.012048
   59  C  4 XZ   -0.003729   0.010917   0.002856  -0.001612   0.002668
   60  C  4 YZ    0.011133   0.001348   0.010436   0.010612  -0.007920
   61  H  5  S    0.065463  -0.174621   0.125576   0.008874   0.023261
   62  H  5  S    0.057263  -0.144840   0.114004   0.027764   0.027120
   63  H  6  S   -0.065463   0.174621   0.125576   0.008874  -0.023261
   64  H  6  S   -0.057263   0.144840   0.114004   0.027764  -0.027120
   65  H  7  S    0.186960   0.032348  -0.147399  -0.018955  -0.016616
   66  H  7  S    0.142306   0.019587  -0.129202  -0.039341  -0.035626
   67  H  8  S   -0.186960  -0.032348  -0.147399  -0.018955   0.016616
   68  H  8  S   -0.142306  -0.019587  -0.129202  -0.039341   0.035626
   69  H  9  S   -0.107976  -0.142075   0.107692   0.016618   0.018696
   70  H  9  S   -0.072318  -0.119973   0.099102   0.038974   0.040798
   71  H 10  S    0.107976   0.142075   0.107692   0.016618  -0.018696
   72  H 10  S    0.072318   0.119973   0.099102   0.038974  -0.040798

                     16         17
                    0.2179     0.0866
                     A'         A'' 
    1  C  1  S    0.009853  -0.008472
    2  C  1  S   -0.022407   0.020084
    3  C  1  X    0.015148  -0.046370
    4  C  1  Y   -0.278217   0.477807
    5  C  1  Z    0.067108  -0.056753
    6  C  1  S   -0.017306   0.187853
    7  C  1  X   -0.001564  -0.026042
    8  C  1  Y   -0.216614   0.403235
    9  C  1  Z    0.057622  -0.169159
   10  C  1 XX    0.010844  -0.002708
   11  C  1 YY   -0.002961   0.009158
   12  C  1 ZZ   -0.003659  -0.008370
   13  C  1 XY    0.010101  -0.002267
   14  C  1 XZ   -0.005173  -0.000172
   15  C  1 YZ    0.014990   0.007910
   16  C  2  S    0.009853   0.008472
   17  C  2  S   -0.022407  -0.020084
   18  C  2  X    0.015148   0.046370
   19  C  2  Y   -0.278217  -0.477807
   20  C  2  Z   -0.067108  -0.056753
   21  C  2  S   -0.017306  -0.187853
   22  C  2  X   -0.001564   0.026042
   23  C  2  Y   -0.216614  -0.403235
   24  C  2  Z   -0.057622  -0.169159
   25  C  2 XX    0.010844   0.002708
   26  C  2 YY   -0.002961  -0.009158
   27  C  2 ZZ   -0.003659   0.008370
   28  C  2 XY    0.010101   0.002267
   29  C  2 XZ    0.005173  -0.000172
   30  C  2 YZ   -0.014990   0.007910
   31  C  3  S    0.000156   0.000991
   32  C  3  S    0.003917  -0.002511
   33  C  3  X    0.104435  -0.084819
   34  C  3  Y    0.332584  -0.279037
   35  C  3  Z   -0.218001   0.175792
   36  C  3  S   -0.010322   0.010871
   37  C  3  X    0.066526  -0.046259
   38  C  3  Y    0.280769  -0.224369
   39  C  3  Z   -0.151778   0.111669
   40  C  3 XX    0.000524  -0.000198
   41  C  3 YY    0.000575  -0.001103
   42  C  3 ZZ   -0.000670   0.000418
   43  C  3 XY    0.002151  -0.008433
   44  C  3 XZ   -0.000639   0.001132
   45  C  3 YZ    0.003492  -0.006997
   46  C  4  S    0.000156  -0.000991
   47  C  4  S    0.003917   0.002511
   48  C  4  X    0.104435   0.084819
   49  C  4  Y    0.332584   0.279037
   50  C  4  Z    0.218001   0.175792
   51  C  4  S   -0.010322  -0.010871
   52  C  4  X    0.066526   0.046259
   53  C  4  Y    0.280769   0.224369
   54  C  4  Z    0.151778   0.111669
   55  C  4 XX    0.000524   0.000198
   56  C  4 YY    0.000575   0.001103
   57  C  4 ZZ   -0.000670  -0.000418
   58  C  4 XY    0.002151   0.008433
   59  C  4 XZ    0.000639   0.001132
   60  C  4 YZ   -0.003492  -0.006997
   61  H  5  S    0.040329  -0.016651
   62  H  5  S    0.044761  -0.003544
   63  H  6  S    0.040329   0.016651
   64  H  6  S    0.044761   0.003544
   65  H  7  S    0.015521  -0.026278
   66  H  7  S    0.002921  -0.024414
   67  H  8  S    0.015521   0.026278
   68  H  8  S    0.002921   0.024414
   69  H  9  S   -0.016374   0.025906
   70  H  9  S    0.000528   0.015889
   71  H 10  S   -0.016374  -0.025906
   72  H 10  S    0.000528  -0.015889

          ------------------------
          MCSCF OPTIMIZED ORBITALS
          ------------------------

                      1          2          3          4          5
                  -11.2258   -11.2250   -11.2131   -11.2131    -1.0732
                     A'         A''        A''        A'         A'  
    1  C  1  S    0.702623   0.702699  -0.045473  -0.042019  -0.130644
    2  C  1  S    0.019602   0.019599  -0.001266  -0.001399   0.249312
    3  C  1  X    0.000089   0.000162  -0.000105  -0.000201   0.048834
    4  C  1  Y   -0.000218  -0.000050   0.000030  -0.000028  -0.009215
    5  C  1  Z    0.000055  -0.000165  -0.000137  -0.000091  -0.018111
    6  C  1  S   -0.006332  -0.012199   0.002826   0.002767   0.174510
    7  C  1  X   -0.000374  -0.001669   0.000897   0.000979   0.002456
    8  C  1  Y   -0.000159  -0.000252  -0.000013   0.000184  -0.011826
    9  C  1  Z   -0.000710   0.001452   0.001298   0.000654  -0.003710
   10  C  1 XX   -0.001440  -0.001100  -0.000103  -0.000102   0.006751
   11  C  1 YY   -0.001810  -0.001570   0.000100   0.000014  -0.010583
   12  C  1 ZZ   -0.001695  -0.000695  -0.000209  -0.000029   0.012803
   13  C  1 XY    0.000055   0.000074  -0.000006   0.000024   0.002792
   14  C  1 XZ    0.000129   0.000281  -0.000054  -0.000070   0.002724
   15  C  1 YZ    0.000044   0.000009  -0.000055  -0.000060   0.001240
   16  C  2  S    0.702623  -0.702699   0.045473  -0.042019  -0.130644
   17  C  2  S    0.019602  -0.019599   0.001266  -0.001399   0.249312
   18  C  2  X    0.000089  -0.000162   0.000105  -0.000201   0.048834
   19  C  2  Y   -0.000218   0.000050  -0.000030  -0.000028  -0.009215
   20  C  2  Z   -0.000055  -0.000165  -0.000137   0.000091   0.018111
   21  C  2  S   -0.006332   0.012199  -0.002826   0.002767   0.174510
   22  C  2  X   -0.000374   0.001669  -0.000897   0.000979   0.002456
   23  C  2  Y   -0.000159   0.000252   0.000013   0.000184  -0.011826
   24  C  2  Z    0.000710   0.001452   0.001298  -0.000654   0.003710
   25  C  2 XX   -0.001440   0.001100   0.000103  -0.000102   0.006751
   26  C  2 YY   -0.001810   0.001570  -0.000100   0.000014  -0.010583
   27  C  2 ZZ   -0.001695   0.000695   0.000209  -0.000029   0.012803
   28  C  2 XY    0.000055  -0.000074   0.000006   0.000024   0.002792
   29  C  2 XZ   -0.000129   0.000281  -0.000054   0.000070  -0.002724
   30  C  2 YZ   -0.000044   0.000009  -0.000055   0.000060  -0.001240
   31  C  3  S    0.041594   0.045064   0.702542   0.702714  -0.091728
   32  C  3  S    0.000912   0.001153   0.019751   0.019646   0.173386
   33  C  3  X    0.000101   0.000119  -0.000068  -0.000111  -0.059573
   34  C  3  Y   -0.000062  -0.000052   0.000021  -0.000014  -0.016812
   35  C  3  Z    0.000187   0.000126  -0.000185  -0.000042  -0.048224
   36  C  3  S    0.002101   0.003040  -0.008700  -0.007844   0.126307
   37  C  3  X   -0.000926  -0.001059   0.000456   0.000471  -0.006615
   38  C  3  Y   -0.000279  -0.000383   0.000197   0.000036  -0.005519
   39  C  3  Z   -0.000839  -0.001279   0.000547   0.000208  -0.001320
   40  C  3 XX   -0.000249  -0.000403  -0.001319  -0.001380   0.006555
   41  C  3 YY   -0.000176  -0.000090  -0.001636  -0.001769  -0.003007
   42  C  3 ZZ   -0.000210  -0.000246  -0.001431  -0.001557   0.002842
   43  C  3 XY   -0.000002  -0.000056  -0.000046  -0.000049  -0.001235
   44  C  3 XZ    0.000015  -0.000028   0.000219   0.000221   0.007766
   45  C  3 YZ   -0.000005  -0.000006   0.000175   0.000178   0.005961
   46  C  4  S    0.041594  -0.045064  -0.702542   0.702714  -0.091728
   47  C  4  S    0.000912  -0.001153  -0.019751   0.019646   0.173386
   48  C  4  X    0.000101  -0.000119   0.000068  -0.000111  -0.059573
   49  C  4  Y   -0.000062   0.000052  -0.000021  -0.000014  -0.016812
   50  C  4  Z   -0.000187   0.000126  -0.000185   0.000042   0.048224
   51  C  4  S    0.002101  -0.003040   0.008700  -0.007844   0.126307
   52  C  4  X   -0.000926   0.001059  -0.000456   0.000471  -0.006615
   53  C  4  Y   -0.000279   0.000383  -0.000197   0.000036  -0.005519
   54  C  4  Z    0.000839  -0.001279   0.000547  -0.000208   0.001320
   55  C  4 XX   -0.000249   0.000403   0.001319  -0.001380   0.006555
   56  C  4 YY   -0.000176   0.000090   0.001636  -0.001769  -0.003007
   57  C  4 ZZ   -0.000210   0.000246   0.001431  -0.001557   0.002842
   58  C  4 XY   -0.000002   0.000056   0.000046  -0.000049  -0.001235
   59  C  4 XZ   -0.000015  -0.000028   0.000219  -0.000221  -0.007766
   60  C  4 YZ    0.000005  -0.000006   0.000175  -0.000178  -0.005961
   61  H  5  S   -0.000132  -0.000080  -0.000063  -0.000041   0.063552
   62  H  5  S    0.001323   0.001019  -0.000249   0.000147   0.008949
   63  H  6  S   -0.000132   0.000080   0.000063  -0.000041   0.063552
   64  H  6  S    0.001323  -0.001019   0.000249   0.000147   0.008949
   65  H  7  S   -0.000035  -0.000071  -0.000111  -0.000091   0.041708
   66  H  7  S    0.000315   0.000363   0.001403   0.001456   0.007187
   67  H  8  S   -0.000035   0.000071   0.000111  -0.000091   0.041708
   68  H  8  S    0.000315  -0.000363  -0.001403   0.001456   0.007187
   69  H  9  S   -0.000105  -0.000121  -0.000054  -0.000112   0.045029
   70  H  9  S    0.000102   0.000076   0.001641   0.001332   0.006746
   71  H 10  S   -0.000105   0.000121   0.000054  -0.000112   0.045029
   72  H 10  S    0.000102  -0.000076  -0.001641   0.001332   0.006746

                      6          7          8          9         10
                   -0.9817    -0.8315    -0.7177    -0.6454    -0.5976
                     A''        A'         A''        A'         A'  
    1  C  1  S   -0.088963   0.074226   0.085747  -0.008629   0.009305
    2  C  1  S    0.172072  -0.144815  -0.170429   0.020741  -0.019451
    3  C  1  X    0.066237   0.125447   0.070511   0.204611  -0.182534
    4  C  1  Y    0.009795   0.033580   0.005278  -0.017114  -0.047264
    5  C  1  Z    0.110847   0.131730  -0.102724  -0.153551  -0.210557
    6  C  1  S    0.126769  -0.138514  -0.164842   0.010660  -0.004120
    7  C  1  X   -0.008896   0.040170   0.067629   0.082989  -0.072019
    8  C  1  Y   -0.001392   0.017043   0.005991  -0.010927  -0.016964
    9  C  1  Z    0.020390   0.031941  -0.033682  -0.056513  -0.071914
   10  C  1 XX    0.010967  -0.001464  -0.012777  -0.008387  -0.000823
   11  C  1 YY   -0.006126   0.005859   0.005392  -0.000366   0.000146
   12  C  1 ZZ   -0.003470  -0.012434   0.003522   0.004215   0.005317
   13  C  1 XY    0.003214  -0.000310  -0.002819  -0.003553  -0.002667
   14  C  1 XZ    0.007220   0.008022   0.007905   0.003949  -0.007613
   15  C  1 YZ    0.000101  -0.000961   0.001187   0.000801  -0.000135
   16  C  2  S    0.088963   0.074226  -0.085747  -0.008629   0.009305
   17  C  2  S   -0.172072  -0.144815   0.170429   0.020741  -0.019451
   18  C  2  X   -0.066237   0.125447  -0.070511   0.204611  -0.182534
   19  C  2  Y   -0.009795   0.033580  -0.005278  -0.017114  -0.047264
   20  C  2  Z    0.110847  -0.131730  -0.102724   0.153551   0.210557
   21  C  2  S   -0.126769  -0.138514   0.164842   0.010660  -0.004120
   22  C  2  X    0.008896   0.040170  -0.067629   0.082989  -0.072019
   23  C  2  Y    0.001392   0.017043  -0.005991  -0.010927  -0.016964
   24  C  2  Z    0.020390  -0.031941  -0.033682   0.056513   0.071914
   25  C  2 XX   -0.010967  -0.001464   0.012777  -0.008387  -0.000823
   26  C  2 YY    0.006126   0.005859  -0.005392  -0.000366   0.000146
   27  C  2 ZZ    0.003470  -0.012434  -0.003522   0.004215   0.005317
   28  C  2 XY   -0.003214  -0.000310   0.002819  -0.003553  -0.002667
   29  C  2 XZ    0.007220  -0.008022   0.007905  -0.003949   0.007613
   30  C  2 YZ    0.000101   0.000961   0.001187  -0.000801   0.000135
   31  C  3  S   -0.126007  -0.102738  -0.060222   0.009812   0.000780
   32  C  3  S    0.237803   0.196978   0.115286  -0.016510  -0.006303
   33  C  3  X   -0.060118   0.053409   0.177625   0.043900   0.281208
   34  C  3  Y   -0.007058   0.013776   0.012440  -0.113439  -0.034384
   35  C  3  Z   -0.033100   0.037740   0.087835  -0.182342   0.089064
   36  C  3  S    0.208289   0.191152   0.122034  -0.038206   0.029736
   37  C  3  X   -0.005574   0.023183   0.066899   0.021912   0.112489
   38  C  3  Y   -0.002710   0.007397   0.007200  -0.048469  -0.016993
   39  C  3  Z   -0.005804   0.016101   0.043171  -0.069555   0.020449
   40  C  3 XX    0.009516   0.006248   0.001126   0.003836   0.004660
   41  C  3 YY   -0.003041   0.000788   0.003921  -0.003336   0.004873
   42  C  3 ZZ    0.002755   0.003838   0.004660  -0.003197  -0.000828
   43  C  3 XY   -0.003425  -0.007900  -0.010572  -0.002421  -0.011317
   44  C  3 XZ    0.007379  -0.002120  -0.008381   0.003393  -0.012710
   45  C  3 YZ    0.009034   0.010349   0.009688  -0.007547   0.004031
   46  C  4  S    0.126007  -0.102738   0.060222   0.009812   0.000780
   47  C  4  S   -0.237803   0.196978  -0.115286  -0.016510  -0.006303
   48  C  4  X    0.060118   0.053409  -0.177625   0.043900   0.281208
   49  C  4  Y    0.007058   0.013776  -0.012440  -0.113439  -0.034384
   50  C  4  Z   -0.033100  -0.037740   0.087835   0.182342  -0.089064
   51  C  4  S   -0.208289   0.191152  -0.122034  -0.038206   0.029736
   52  C  4  X    0.005574   0.023183  -0.066899   0.021912   0.112489
   53  C  4  Y    0.002710   0.007397  -0.007200  -0.048469  -0.016993
   54  C  4  Z   -0.005804  -0.016101   0.043171   0.069555  -0.020449
   55  C  4 XX   -0.009516   0.006248  -0.001126   0.003836   0.004660
   56  C  4 YY    0.003041   0.000788  -0.003921  -0.003336   0.004873
   57  C  4 ZZ   -0.002755   0.003838  -0.004660  -0.003197  -0.000828
   58  C  4 XY    0.003425  -0.007900   0.010572  -0.002421  -0.011317
   59  C  4 XZ    0.007379   0.002120  -0.008381  -0.003393   0.012710
   60  C  4 YZ    0.009034  -0.010349   0.009688   0.007547  -0.004031
   61  H  5  S    0.054637  -0.087600  -0.135161  -0.134736   0.040235
   62  H  5  S    0.007476  -0.035678  -0.061453  -0.095198   0.031399
   63  H  6  S   -0.054637  -0.087600   0.135161  -0.134736   0.040235
   64  H  6  S   -0.007476  -0.035678   0.061453  -0.095198   0.031399
   65  H  7  S    0.075541   0.100077   0.095579  -0.132665   0.027555
   66  H  7  S    0.019922   0.040568   0.050984  -0.089067   0.025497
   67  H  8  S   -0.075541   0.100077  -0.095579  -0.132665   0.027555
   68  H  8  S   -0.019922   0.040568  -0.050984  -0.089067   0.025497
   69  H  9  S    0.069048   0.100562   0.125051   0.061906   0.152503
   70  H  9  S    0.013301   0.045468   0.070569   0.042762   0.118132
   71  H 10  S   -0.069048   0.100562  -0.125051   0.061906   0.152503
   72  H 10  S   -0.013301   0.045468  -0.070569   0.042762   0.118132

                     11         12         13         14         15
                   -0.5731    -0.5161    -0.4998    -0.4006    -0.2534
                     A''        A''        A'         A'         A'' 
    1  C  1  S    0.014737   0.007484   0.014848  -0.004848  -0.014095
    2  C  1  S   -0.033132  -0.010145  -0.033128   0.010437   0.030219
    3  C  1  X   -0.146115   0.260647  -0.086191  -0.032576  -0.024645
    4  C  1  Y    0.009248   0.044017   0.022031   0.309793   0.228755
    5  C  1  Z   -0.002319   0.017302   0.281048  -0.034352  -0.039780
    6  C  1  S   -0.010396  -0.046311  -0.039517  -0.014745   0.088744
    7  C  1  X   -0.046992   0.141366  -0.066725  -0.034776  -0.059257
    8  C  1  Y   -0.005851   0.003942   0.043791   0.219778   0.199541
    9  C  1  Z   -0.010240  -0.020486   0.135690  -0.006384  -0.051810
   10  C  1 XX   -0.003582  -0.013573   0.021788   0.004722   0.008832
   11  C  1 YY    0.000956   0.001587  -0.000892   0.002019   0.003875
   12  C  1 ZZ    0.007357   0.004753  -0.017892  -0.006570  -0.013530
   13  C  1 XY    0.002790   0.000932  -0.000285   0.008399   0.011107
   14  C  1 XZ   -0.010882   0.024684  -0.003806  -0.003114  -0.006180
   15  C  1 YZ    0.002719   0.004901  -0.006420  -0.006544   0.014942
   16  C  2  S   -0.014737  -0.007484   0.014848  -0.004848   0.014095
   17  C  2  S    0.033132   0.010145  -0.033128   0.010437  -0.030219
   18  C  2  X    0.146115  -0.260647  -0.086191  -0.032576   0.024645
   19  C  2  Y   -0.009248  -0.044017   0.022031   0.309793  -0.228755
   20  C  2  Z   -0.002319   0.017302  -0.281048   0.034352  -0.039780
   21  C  2  S    0.010396   0.046311  -0.039517  -0.014745  -0.088744
   22  C  2  X    0.046992  -0.141366  -0.066725  -0.034776   0.059257
   23  C  2  Y    0.005851  -0.003942   0.043791   0.219778  -0.199541
   24  C  2  Z   -0.010240  -0.020486  -0.135690   0.006384  -0.051810
   25  C  2 XX    0.003582   0.013573   0.021788   0.004722  -0.008832
   26  C  2 YY   -0.000956  -0.001587  -0.000892   0.002019  -0.003875
   27  C  2 ZZ   -0.007357  -0.004753  -0.017892  -0.006570   0.013530
   28  C  2 XY   -0.002790  -0.000932  -0.000285   0.008399  -0.011107
   29  C  2 XZ   -0.010882   0.024684   0.003806   0.003114  -0.006180
   30  C  2 YZ    0.002719   0.004901   0.006420   0.006544   0.014942
   31  C  3  S    0.007563  -0.017723  -0.004885   0.002161   0.000112
   32  C  3  S   -0.016110   0.038287   0.009345  -0.005958   0.002600
   33  C  3  X   -0.042629  -0.239808   0.045582   0.063999   0.100114
   34  C  3  Y    0.173271   0.069027  -0.136537   0.171534   0.262163
   35  C  3  Z    0.249815  -0.040891  -0.154726  -0.115155  -0.185989
   36  C  3  S   -0.012192   0.026380   0.009618   0.003079   0.007072
   37  C  3  X   -0.038140  -0.124158   0.043300   0.050842   0.084994
   38  C  3  Y    0.080858   0.033966  -0.062845   0.121606   0.219829
   39  C  3  Z    0.125894   0.009354  -0.107301  -0.094784  -0.162302
   40  C  3 XX   -0.013239  -0.012246   0.019455   0.002726   0.003923
   41  C  3 YY    0.005321  -0.002761  -0.004153  -0.003555  -0.002422
   42  C  3 ZZ    0.012336   0.008582  -0.017584   0.000772   0.000338
   43  C  3 XY    0.004849   0.009019  -0.005722  -0.012573  -0.012007
   44  C  3 XZ   -0.003729   0.010917  -0.002856   0.001614   0.002662
   45  C  3 YZ    0.011133   0.001348  -0.010436  -0.010621  -0.007887
   46  C  4  S   -0.007563   0.017723  -0.004885   0.002161  -0.000112
   47  C  4  S    0.016110  -0.038287   0.009345  -0.005958  -0.002600
   48  C  4  X    0.042629   0.239808   0.045582   0.063999  -0.100114
   49  C  4  Y   -0.173271  -0.069027  -0.136537   0.171534  -0.262163
   50  C  4  Z    0.249815  -0.040891   0.154726   0.115155  -0.185989
   51  C  4  S    0.012192  -0.026380   0.009618   0.003079  -0.007072
   52  C  4  X    0.038140   0.124158   0.043300   0.050842  -0.084994
   53  C  4  Y   -0.080858  -0.033966  -0.062845   0.121606  -0.219829
   54  C  4  Z    0.125894   0.009354   0.107301   0.094784  -0.162302
   55  C  4 XX    0.013239   0.012246   0.019455   0.002726  -0.003923
   56  C  4 YY   -0.005321   0.002761  -0.004153  -0.003555   0.002422
   57  C  4 ZZ   -0.012336  -0.008582  -0.017584   0.000772  -0.000338
   58  C  4 XY   -0.004849  -0.009019  -0.005722  -0.012573   0.012007
   59  C  4 XZ   -0.003729   0.010917   0.002856  -0.001614   0.002662
   60  C  4 YZ    0.011133   0.001348   0.010436   0.010621  -0.007887
   61  H  5  S    0.065463  -0.174621   0.125576   0.008767   0.023340
   62  H  5  S    0.057263  -0.144840   0.114004   0.027645   0.027137
   63  H  6  S   -0.065463   0.174621   0.125576   0.008767  -0.023340
   64  H  6  S   -0.057263   0.144840   0.114004   0.027645  -0.027137
   65  H  7  S    0.186960   0.032348  -0.147399  -0.018996  -0.016490
   66  H  7  S    0.142306   0.019587  -0.129202  -0.039349  -0.035508
   67  H  8  S   -0.186960  -0.032348  -0.147399  -0.018996   0.016490
   68  H  8  S   -0.142306  -0.019587  -0.129202  -0.039349   0.035508
   69  H  9  S   -0.107976  -0.142075   0.107692   0.016661   0.018571
   70  H  9  S   -0.072318  -0.119973   0.099102   0.038972   0.040721
   71  H 10  S    0.107976   0.142075   0.107692   0.016661  -0.018571
   72  H 10  S    0.072318   0.119973   0.099102   0.038972  -0.040721

                     16         17         18         19         20
                    0.0915     0.2887     0.2600     0.2682     0.3088
                     A'         A''        A'         A'         A'' 
    1  C  1  S    0.009840  -0.008540  -0.013227   0.054173  -0.008091
    2  C  1  S   -0.022379   0.020230   0.024959  -0.046065   0.019566
    3  C  1  X    0.015061  -0.046489  -0.078463   0.144668   0.072224
    4  C  1  Y   -0.277396   0.478910  -0.018928   0.023451  -0.002818
    5  C  1  Z    0.067017  -0.056945   0.017146  -0.086901  -0.038222
    6  C  1  S   -0.017345   0.188281   0.392580  -0.975248  -0.120873
    7  C  1  X   -0.001656  -0.026326  -0.246298   0.400551   0.247345
    8  C  1  Y   -0.216031   0.404197  -0.035411   0.146573   0.198089
    9  C  1  Z    0.057605  -0.169409   0.117777  -0.344637   0.105224
   10  C  1 XX    0.010856  -0.002665   0.003695   0.012442   0.004283
   11  C  1 YY   -0.002955   0.009177  -0.001875   0.002979   0.002931
   12  C  1 ZZ   -0.003676  -0.008435   0.002586  -0.004431  -0.010246
   13  C  1 XY    0.010123  -0.002214   0.006468  -0.001894  -0.003978
   14  C  1 XZ   -0.005182  -0.000202   0.010841  -0.009011   0.002351
   15  C  1 YZ    0.014972   0.007981  -0.003322  -0.006166   0.001004
   16  C  2  S    0.009840   0.008540  -0.013227   0.054173   0.008091
   17  C  2  S   -0.022379  -0.020230   0.024959  -0.046065  -0.019566
   18  C  2  X    0.015061   0.046489  -0.078463   0.144668  -0.072224
   19  C  2  Y   -0.277396  -0.478910  -0.018928   0.023451   0.002818
   20  C  2  Z   -0.067017  -0.056945  -0.017146   0.086901  -0.038222
   21  C  2  S   -0.017345  -0.188281   0.392580  -0.975248   0.120873
   22  C  2  X   -0.001656   0.026326  -0.246298   0.400551  -0.247345
   23  C  2  Y   -0.216031  -0.404197  -0.035411   0.146573  -0.198089
   24  C  2  Z   -0.057605  -0.169409  -0.117777   0.344637   0.105224
   25  C  2 XX    0.010856   0.002665   0.003695   0.012442  -0.004283
   26  C  2 YY   -0.002955  -0.009177  -0.001875   0.002979  -0.002931
   27  C  2 ZZ   -0.003676   0.008435   0.002586  -0.004431   0.010246
   28  C  2 XY    0.010123   0.002214   0.006468  -0.001894   0.003978
   29  C  2 XZ    0.005182  -0.000202  -0.010841   0.009011   0.002351
   30  C  2 YZ   -0.014972   0.007981   0.003322   0.006166   0.001004
   31  C  3  S    0.000162   0.000992  -0.084090  -0.025907   0.077479
   32  C  3  S    0.003901  -0.002499   0.096993   0.012764  -0.068307
   33  C  3  X    0.104605  -0.084340   0.095739   0.086201  -0.037051
   34  C  3  Y    0.333041  -0.277782   0.003777  -0.073090  -0.089807
   35  C  3  Z   -0.218308   0.174902   0.045047  -0.046972  -0.153725
   36  C  3  S   -0.010314   0.010905   1.312155   0.532689  -1.478738
   37  C  3  X    0.066661  -0.045852   0.515750   0.197448  -0.062290
   38  C  3  Y    0.281093  -0.223316   0.055847  -0.345819  -0.412498
   39  C  3  Z   -0.152030   0.110892   0.230936  -0.090077  -0.529456
   40  C  3 XX    0.000531  -0.000179   0.001791  -0.010559  -0.000084
   41  C  3 YY    0.000566  -0.001114  -0.003670  -0.004389   0.005952
   42  C  3 ZZ   -0.000668   0.000419  -0.011760   0.009742   0.003847
   43  C  3 XY    0.002117  -0.008491  -0.001390   0.000768  -0.001065
   44  C  3 XZ   -0.000635   0.001145   0.002417   0.000431   0.000499
   45  C  3 YZ    0.003463  -0.007035  -0.001294   0.001105  -0.000442
   46  C  4  S    0.000162  -0.000992  -0.084090  -0.025907  -0.077479
   47  C  4  S    0.003901   0.002499   0.096993   0.012764   0.068307
   48  C  4  X    0.104605   0.084340   0.095739   0.086201   0.037051
   49  C  4  Y    0.333041   0.277782   0.003777  -0.073090   0.089807
   50  C  4  Z    0.218308   0.174902  -0.045047   0.046972  -0.153725
   51  C  4  S   -0.010314  -0.010905   1.312155   0.532689   1.478738
   52  C  4  X    0.066661   0.045852   0.515750   0.197448   0.062290
   53  C  4  Y    0.281093   0.223316   0.055847  -0.345819   0.412498
   54  C  4  Z    0.152030   0.110892  -0.230936   0.090077  -0.529456
   55  C  4 XX    0.000531   0.000179   0.001791  -0.010559   0.000084
   56  C  4 YY    0.000566   0.001114  -0.003670  -0.004389  -0.005952
   57  C  4 ZZ   -0.000668  -0.000419  -0.011760   0.009742  -0.003847
   58  C  4 XY    0.002117   0.008491  -0.001390   0.000768   0.001065
   59  C  4 XZ    0.000635   0.001145  -0.002417  -0.000431   0.000499
   60  C  4 YZ   -0.003463  -0.007035   0.001294  -0.001105  -0.000442
   61  H  5  S    0.040353  -0.016539  -0.001840   0.028747  -0.014929
   62  H  5  S    0.044835  -0.003414  -0.489439   1.215065   0.278842
   63  H  6  S    0.040353   0.016539  -0.001840   0.028747   0.014929
   64  H  6  S    0.044835   0.003414  -0.489439   1.215065  -0.278842
   65  H  7  S    0.015471  -0.026358  -0.030288   0.005125   0.009874
   66  H  7  S    0.002816  -0.024585  -0.900072   0.204953   1.520734
   67  H  8  S    0.015471   0.026358  -0.030288   0.005125  -0.009874
   68  H  8  S    0.002816   0.024585  -0.900072   0.204953  -1.520734
   69  H  9  S   -0.016330   0.025996   0.007390  -0.022401   0.022870
   70  H  9  S    0.000631   0.016085  -1.013920  -0.793090   0.390137
   71  H 10  S   -0.016330  -0.025996   0.007390  -0.022401  -0.022870
   72  H 10  S    0.000631  -0.016085  -1.013920  -0.793090  -0.390137

                     21         22         23         24         25
                    0.3360     0.3511     0.3636     0.4713     0.5133
                     A''        A'         A''        A'         A'' 
    1  C  1  S    0.082999  -0.026436   0.040243  -0.055336  -0.099333
    2  C  1  S   -0.096179   0.000553  -0.067040   0.051814   0.046614
    3  C  1  X    0.134356  -0.072676   0.037848   0.141186   0.141667
    4  C  1  Y    0.039096  -0.017657  -0.012150   0.013796   0.036732
    5  C  1  Z   -0.052780   0.080756   0.104047   0.032270  -0.128715
    6  C  1  S   -1.330660   0.829464  -0.526423   2.327555   3.300773
    7  C  1  X    1.054611  -0.378696   0.608452   1.253805   1.917821
    8  C  1  Y    0.211200   0.142404  -0.179694   0.165410   0.072499
    9  C  1  Z   -0.188644   0.484359   0.267572   0.975303  -1.336906
   10  C  1 XX    0.002802   0.011618  -0.014591   0.002131   0.024297
   11  C  1 YY    0.001447  -0.006547  -0.003024  -0.003361  -0.002700
   12  C  1 ZZ    0.004119  -0.008557   0.020409   0.017328  -0.001729
   13  C  1 XY   -0.000151  -0.006849   0.004300   0.005322   0.007756
   14  C  1 XZ    0.007668  -0.003840   0.004331  -0.015973   0.016202
   15  C  1 YZ    0.001262  -0.003409   0.004136  -0.002436   0.000443
   16  C  2  S   -0.082999  -0.026436  -0.040243  -0.055336   0.099333
   17  C  2  S    0.096179   0.000553   0.067040   0.051814  -0.046614
   18  C  2  X   -0.134356  -0.072676  -0.037848   0.141186  -0.141667
   19  C  2  Y   -0.039096  -0.017657   0.012150   0.013796  -0.036732
   20  C  2  Z   -0.052780  -0.080756   0.104047  -0.032270  -0.128715
   21  C  2  S    1.330660   0.829464   0.526423   2.327555  -3.300773
   22  C  2  X   -1.054611  -0.378696  -0.608452   1.253805  -1.917821
   23  C  2  Y   -0.211200   0.142404   0.179694   0.165410  -0.072499
   24  C  2  Z   -0.188644  -0.484359   0.267572  -0.975303  -1.336906
   25  C  2 XX   -0.002802   0.011618   0.014591   0.002131  -0.024297
   26  C  2 YY   -0.001447  -0.006547   0.003024  -0.003361   0.002700
   27  C  2 ZZ   -0.004119  -0.008557  -0.020409   0.017328   0.001729
   28  C  2 XY    0.000151  -0.006849  -0.004300   0.005322  -0.007756
   29  C  2 XZ    0.007668   0.003840   0.004331   0.015973   0.016202
   30  C  2 YZ    0.001262   0.003409   0.004136   0.002436   0.000443
   31  C  3  S   -0.039812   0.023213   0.034869   0.061895   0.041453
   32  C  3  S    0.053661  -0.015501  -0.026543  -0.018070   0.032531
   33  C  3  X    0.030568   0.098222  -0.167283   0.081973  -0.068225
   34  C  3  Y   -0.021603  -0.145642   0.136861   0.026214   0.055232
   35  C  3  Z   -0.046501  -0.142088   0.042653   0.020685   0.011525
   36  C  3  S    0.228914  -0.525413  -0.961454  -2.014456  -1.600001
   37  C  3  X    0.034421   0.688901  -0.639226   1.454457   0.779304
   38  C  3  Y   -0.104221  -0.670797   0.692706   0.290776   0.370950
   39  C  3  Z    0.107348  -0.719057   0.536707   1.203291   1.564147
   40  C  3 XX   -0.006377   0.004352   0.009603   0.001459  -0.023748
   41  C  3 YY   -0.003200   0.002401   0.000809  -0.004796   0.003115
   42  C  3 ZZ    0.000607  -0.003653  -0.010577  -0.003211   0.016244
   43  C  3 XY   -0.000826   0.000272  -0.000125   0.007736   0.010980
   44  C  3 XZ   -0.008163  -0.000907  -0.010073   0.008950   0.018658
   45  C  3 YZ   -0.001779  -0.000324  -0.004336  -0.011896  -0.005665
   46  C  4  S    0.039812   0.023213  -0.034869   0.061895  -0.041453
   47  C  4  S   -0.053661  -0.015501   0.026543  -0.018070  -0.032531
   48  C  4  X   -0.030568   0.098222   0.167283   0.081973   0.068225
   49  C  4  Y    0.021603  -0.145642  -0.136861   0.026214  -0.055232
   50  C  4  Z   -0.046501   0.142088   0.042653  -0.020685   0.011525
   51  C  4  S   -0.228914  -0.525413   0.961454  -2.014456   1.600001
   52  C  4  X   -0.034421   0.688901   0.639226   1.454457  -0.779304
   53  C  4  Y    0.104221  -0.670797  -0.692706   0.290776  -0.370950
   54  C  4  Z    0.107348   0.719057   0.536707  -1.203291   1.564147
   55  C  4 XX    0.006377   0.004352  -0.009603   0.001459   0.023748
   56  C  4 YY    0.003200   0.002401  -0.000809  -0.004796  -0.003115
   57  C  4 ZZ   -0.000607  -0.003653   0.010577  -0.003211  -0.016244
   58  C  4 XY    0.000826   0.000272   0.000125   0.007736  -0.010980
   59  C  4 XZ   -0.008163   0.000907  -0.010073  -0.008950   0.018658
   60  C  4 YZ   -0.001779   0.000324  -0.004336   0.011896  -0.005665
   61  H  5  S    0.012683   0.028231  -0.029022   0.055392   0.003043
   62  H  5  S    1.753583  -0.805375   0.465837   0.274435   1.013767
   63  H  6  S   -0.012683   0.028231   0.029022   0.055392  -0.003043
   64  H  6  S   -1.753583  -0.805375  -0.465837   0.274435  -1.013767
   65  H  7  S   -0.013745  -0.009145  -0.025231  -0.061080   0.028357
   66  H  7  S   -0.138423   1.401837  -0.644812  -0.354274  -0.671922
   67  H  8  S    0.013745  -0.009145   0.025231  -0.061080  -0.028357
   68  H  8  S    0.138423   1.401837   0.644812  -0.354274   0.671922
   69  H  9  S   -0.009136   0.021889   0.040521  -0.016540  -0.128250
   70  H  9  S   -0.411611  -0.949550   1.601440  -0.170432   0.315214
   71  H 10  S    0.009136   0.021889  -0.040521  -0.016540   0.128250
   72  H 10  S    0.411611  -0.949550  -1.601440  -0.170432  -0.315214

                     26         27         28         29         30
                    0.5656     0.6584     0.7471     0.7625     0.8039
                     A''        A'         A'         A'         A'' 
    1  C  1  S    0.017073  -0.008918  -0.002520   0.009717  -0.054932
    2  C  1  S   -0.011870  -0.221760  -0.176023   0.092090  -0.090323
    3  C  1  X    0.069449  -0.248372   0.046579   0.096814  -0.084912
    4  C  1  Y    0.027402  -0.036484  -0.138729  -0.447218   0.079989
    5  C  1  Z    0.251836  -0.175946   0.205612  -0.252627  -0.324911
    6  C  1  S    0.283280   0.270384   0.286978  -0.076031   0.298014
    7  C  1  X    1.624621   0.346139  -0.120170  -0.097240   0.776231
    8  C  1  Y    0.369797   0.054100   0.082076   0.241306   0.048942
    9  C  1  Z    3.000488   0.474540  -0.113716   0.330032   1.083468
   10  C  1 XX    0.002784  -0.040697  -0.009253  -0.025408  -0.030568
   11  C  1 YY   -0.011550  -0.003726  -0.007556   0.000017   0.046245
   12  C  1 ZZ    0.027878   0.001508  -0.034985   0.064538  -0.084320
[...]
    1  C  1  S    0.037935  -0.011553  -0.085329  -0.276132   0.191073
    2  C  1  S   -0.200109   0.035858   0.270979   1.839735  -1.113336
    3  C  1  X   -0.444857  -0.233293   0.182915   0.029816   0.209627
    4  C  1  Y   -0.046149  -0.007908   0.045210   0.007141   0.033272
    5  C  1  Z   -0.298452  -0.434710  -0.002084  -0.033663   0.171957
    6  C  1  S   -1.382380  -0.159315   1.814655   0.693541  -0.941655
    7  C  1  X   -0.633728  -0.973274   0.942126  -0.020028  -0.155565
    8  C  1  Y   -0.100869  -0.219340   0.080696  -0.012017  -0.024546
    9  C  1  Z   -0.456396  -1.265177   0.151403   0.042383  -0.138900
   10  C  1 XX   -0.459771  -0.769155  -0.289190  -1.089790   0.885740
   11  C  1 YY    0.326482   0.005473  -0.458597  -1.070296   0.727855
   12  C  1 ZZ    0.040003   0.670728   0.440673  -0.981326   0.727174
   13  C  1 XY   -0.100553  -0.080333   0.051537  -0.010282   0.021067
   14  C  1 XZ   -0.483130  -0.423080   0.800875   0.009017   0.146003
   15  C  1 YZ   -0.049199   0.011640   0.161444   0.006004   0.027770
   16  C  2  S    0.037935   0.011553   0.085329  -0.276132   0.191073
   17  C  2  S   -0.200109  -0.035858  -0.270979   1.839735  -1.113336
   18  C  2  X   -0.444857   0.233293  -0.182915   0.029816   0.209627
   19  C  2  Y   -0.046149   0.007908  -0.045210   0.007141   0.033272
   20  C  2  Z    0.298452  -0.434710  -0.002084   0.033663  -0.171957
   21  C  2  S   -1.382380   0.159315  -1.814655   0.693541  -0.941655
   22  C  2  X   -0.633728   0.973274  -0.942126  -0.020028  -0.155565
   23  C  2  Y   -0.100869   0.219340  -0.080696  -0.012017  -0.024546
   24  C  2  Z    0.456396  -1.265177   0.151403  -0.042383   0.138900
   25  C  2 XX   -0.459771   0.769155   0.289190  -1.089790   0.885740
   26  C  2 YY    0.326482  -0.005473   0.458597  -1.070296   0.727855
   27  C  2 ZZ    0.040003  -0.670728  -0.440673  -0.981326   0.727174
   28  C  2 XY   -0.100553   0.080333  -0.051537  -0.010282   0.021067
   29  C  2 XZ    0.483130  -0.423080   0.800875  -0.009017  -0.146003
   30  C  2 YZ    0.049199   0.011640   0.161444  -0.006004  -0.027770
   31  C  3  S   -0.051227  -0.027855   0.031116  -0.178046  -0.276998
   32  C  3  S    0.146992   0.151422  -0.222947   1.286932   1.746485
   33  C  3  X   -0.392164  -0.280179   0.382499  -0.085719   0.172299
   34  C  3  Y   -0.044021  -0.037774   0.063532  -0.012500   0.027841
   35  C  3  Z   -0.315400  -0.287458   0.196693  -0.081737   0.126799
   36  C  3  S    1.480721   1.421765  -1.292708   0.343064   1.350220
   37  C  3  X   -0.701350  -0.708713   0.443076   0.087071  -0.110872
   38  C  3  Y   -0.071022   0.033232   0.164555   0.038233  -0.021177
   39  C  3  Z   -0.483063  -0.280789   0.505127   0.133426  -0.086668
   40  C  3 XX    0.182999  -0.105847  -0.498989  -0.675815  -1.227388
   41  C  3 YY   -0.387223  -0.159710   0.218253  -0.703828  -1.056296
   42  C  3 ZZ    0.184325   0.298879   0.295976  -0.688082  -1.148830
   43  C  3 XY    0.185395   0.137719  -0.027407   0.022813  -0.023269
   44  C  3 XZ    0.700759   0.490626  -0.284645   0.037460  -0.147356
   45  C  3 YZ    0.165864   0.170659   0.006035  -0.007424  -0.030638
   46  C  4  S   -0.051227   0.027855  -0.031116  -0.178046  -0.276998
   47  C  4  S    0.146992  -0.151422   0.222947   1.286932   1.746485
   48  C  4  X   -0.392164   0.280179  -0.382499  -0.085719   0.172299
   49  C  4  Y   -0.044021   0.037774  -0.063532  -0.012500   0.027841
   50  C  4  Z    0.315400  -0.287458   0.196693   0.081737  -0.126799
   51  C  4  S    1.480721  -1.421765   1.292708   0.343064   1.350220
   52  C  4  X   -0.701350   0.708713  -0.443076   0.087071  -0.110872
   53  C  4  Y   -0.071022  -0.033232  -0.164555   0.038233  -0.021177
   54  C  4  Z    0.483063  -0.280789   0.505127  -0.133426   0.086668
   55  C  4 XX    0.182999   0.105847   0.498989  -0.675815  -1.227388
   56  C  4 YY   -0.387223   0.159710  -0.218253  -0.703828  -1.056296
   57  C  4 ZZ    0.184325  -0.298879  -0.295976  -0.688082  -1.148830
   58  C  4 XY    0.185395  -0.137719   0.027407   0.022813  -0.023269
   59  C  4 XZ   -0.700759   0.490626  -0.284645  -0.037460   0.147356
   60  C  4 YZ   -0.165864   0.170659   0.006035   0.007424   0.030638
   61  H  5  S    0.040445   0.056105   0.284960   0.118163  -0.056195
   62  H  5  S   -0.115538  -0.139533  -0.030156  -0.245880   0.130416
   63  H  6  S    0.040445  -0.056105  -0.284960   0.118163  -0.056195
   64  H  6  S   -0.115538   0.139533   0.030156  -0.245880   0.130416
   65  H  7  S   -0.089394  -0.182118  -0.118326   0.074371   0.089813
   66  H  7  S    0.045046   0.024758  -0.038441  -0.199329  -0.239399
   67  H  8  S   -0.089394   0.182118   0.118326   0.074371   0.089813
   68  H  8  S    0.045046  -0.024758   0.038441  -0.199329  -0.239399
   69  H  9  S    0.110314   0.150334   0.158858   0.091750   0.084836
   70  H  9  S   -0.005080   0.068775  -0.044795  -0.148179  -0.231289
   71  H 10  S    0.110314  -0.150334  -0.158858   0.091750   0.084836
   72  H 10  S   -0.005080  -0.068775   0.044795  -0.148179  -0.231289

                     71         72
                    4.6168     4.8941
                     A''        A'' 
    1  C  1  S   -0.121980  -0.314425
    2  C  1  S    0.733829   1.923290
    3  C  1  X    0.104974  -0.177802
    4  C  1  Y    0.006270  -0.023574
    5  C  1  Z    0.161363   0.059716
    6  C  1  S    0.579784   2.082134
    7  C  1  X    0.169538   0.360643
    8  C  1  Y    0.051991   0.032930
    9  C  1  Z   -0.283927  -0.103414
   10  C  1 XX   -0.333841  -1.314493
   11  C  1 YY   -0.478172  -1.153071
   12  C  1 ZZ   -0.482578  -1.649888
   13  C  1 XY    0.020640  -0.029890
   14  C  1 XZ    0.086295  -0.217142
   15  C  1 YZ    0.021526  -0.032648
   16  C  2  S    0.121980   0.314425
   17  C  2  S   -0.733829  -1.923290
   18  C  2  X   -0.104974   0.177802
   19  C  2  Y   -0.006270   0.023574
   20  C  2  Z    0.161363   0.059716
   21  C  2  S   -0.579784  -2.082134
   22  C  2  X   -0.169538  -0.360643
   23  C  2  Y   -0.051991  -0.032930
   24  C  2  Z   -0.283927  -0.103414
   25  C  2 XX    0.333841   1.314493
   26  C  2 YY    0.478172   1.153071
   27  C  2 ZZ    0.482578   1.649888
   28  C  2 XY   -0.020640   0.029890
   29  C  2 XZ    0.086295  -0.217142
   30  C  2 YZ    0.021526  -0.032648
   31  C  3  S   -0.316074   0.117115
   32  C  3  S    2.012068  -0.645465
   33  C  3  X    0.027964  -0.229231
   34  C  3  Y    0.000345  -0.038027
   35  C  3  Z    0.054454  -0.149275
   36  C  3  S    1.047943  -1.153260
   37  C  3  X    0.076057   0.162862
   38  C  3  Y   -0.003903   0.057266
   39  C  3  Z    0.069275   0.239008
   40  C  3 XX   -1.244166   0.696890
   41  C  3 YY   -1.237985   0.397216
   42  C  3 ZZ   -1.263528   0.500759
   43  C  3 XY    0.010385   0.057256
   44  C  3 XZ   -0.060269   0.153095
   45  C  3 YZ   -0.028577   0.014284
   46  C  4  S    0.316074  -0.117115
   47  C  4  S   -2.012068   0.645465
   48  C  4  X   -0.027964   0.229231
   49  C  4  Y   -0.000345   0.038027
   50  C  4  Z    0.054454  -0.149275
   51  C  4  S   -1.047943   1.153260
   52  C  4  X   -0.076057  -0.162862
   53  C  4  Y    0.003903  -0.057266
   54  C  4  Z    0.069275   0.239008
   55  C  4 XX    1.244166  -0.696890
   56  C  4 YY    1.237985  -0.397216
   57  C  4 ZZ    1.263528  -0.500759
   58  C  4 XY   -0.010385  -0.057256
   59  C  4 XZ   -0.060269   0.153095
   60  C  4 YZ   -0.028577   0.014284
   61  H  5  S    0.057507   0.074770
   62  H  5  S    0.005115  -0.206471
   63  H  6  S   -0.057507  -0.074770
   64  H  6  S   -0.005115   0.206471
   65  H  7  S    0.129624  -0.007088
   66  H  7  S   -0.310533   0.063806
   67  H  8  S   -0.129624   0.007088
   68  H  8  S    0.310533  -0.063806
   69  H  9  S    0.114884  -0.016025
   70  H  9  S   -0.339760   0.140063
   71  H 10  S   -0.114884   0.016025
   72  H 10  S    0.339760  -0.140063
 .....DONE WITH MCSCF ITERATIONS.....
 CPU     0: STEP CPU TIME=     2.69 TOTAL CPU TIME=        3.8 (    0.1 MIN)
 TOTAL WALL CLOCK TIME=        3.8 SECONDS, CPU UTILIZATION IS 100.00%

     ----------------------------------------------------------------
     PROPERTY VALUES FOR THE MCSCF SELF-CONSISTENT FIELD WAVEFUNCTION
     ----------------------------------------------------------------

          -----------------
          ENERGY COMPONENTS
          -----------------

         WAVEFUNCTION NORMALIZATION =       1.0000000000

                ONE ELECTRON ENERGY =    -414.2525298448
                TWO ELECTRON ENERGY =     155.0132102277
           NUCLEAR REPULSION ENERGY =     104.3421852331
                                      ------------------
                       TOTAL ENERGY =    -154.8971343840

 ELECTRON-ELECTRON POTENTIAL ENERGY =     155.0132102277
  NUCLEUS-ELECTRON POTENTIAL ENERGY =    -569.1216260241
   NUCLEUS-NUCLEUS POTENTIAL ENERGY =     104.3421852331
                                      ------------------
             TOTAL POTENTIAL ENERGY =    -309.7662305634
               TOTAL KINETIC ENERGY =     154.8690961794
                 VIRIAL RATIO (V/T) =       2.0001810445

          ---------------------------------------
          MULLIKEN AND LOWDIN POPULATION ANALYSES
          ---------------------------------------

     ATOMIC MULLIKEN POPULATION IN EACH MOLECULAR ORBITAL

                      1          2          3          4          5

                  2.000000   2.000000   2.000000   2.000000   2.000000

    1             0.995742   0.995153   0.004614   0.003958   0.601707
    2             0.995742   0.995153   0.004614   0.003958   0.601707
    3             0.004039   0.004715   0.994977   0.995661   0.330268
    4             0.004039   0.004715   0.994977   0.995661   0.330268
    5             0.000207   0.000120  -0.000004   0.000002   0.034577
    6             0.000207   0.000120  -0.000004   0.000002   0.034577
    7             0.000010   0.000011   0.000189   0.000198   0.015561
    8             0.000010   0.000011   0.000189   0.000198   0.015561
    9             0.000003   0.000002   0.000223   0.000181   0.017888
   10             0.000003   0.000002   0.000223   0.000181   0.017888

                      6          7          8          9         10

                  2.000000   2.000000   2.000000   2.000000   2.000000

    1             0.334488   0.390406   0.301788   0.380240   0.353007
    2             0.334488   0.390406   0.301788   0.380240   0.353007
    3             0.551330   0.366850   0.356352   0.291920   0.430100
    4             0.551330   0.366850   0.356352   0.291920   0.430100
    5             0.023125   0.065701   0.137900   0.153240   0.014350
    6             0.023125   0.065701   0.137900   0.153240   0.014350
    7             0.051532   0.086121   0.075270   0.143136   0.007844
    8             0.051532   0.086121   0.075270   0.143136   0.007844
    9             0.039525   0.090923   0.128689   0.031464   0.194698
   10             0.039525   0.090923   0.128689   0.031464   0.194698

                     11         12         13         14         15

                  2.000000   2.000000   2.000000   1.909742   1.785719

    1             0.095334   0.322734   0.391616   0.634773   0.290003
    2             0.095334   0.322734   0.391616   0.634773   0.290003
    3             0.514409   0.294144   0.235761   0.319384   0.601392
    4             0.514409   0.294144   0.235761   0.319384   0.601392
    5             0.035922   0.224437   0.121627  -0.000016   0.001518
    6             0.035922   0.224437   0.121627  -0.000016   0.001518
    7             0.273520   0.005994   0.161521   0.000242   0.000370
    8             0.273520   0.005994   0.161521   0.000242   0.000370
    9             0.080816   0.152690   0.089475   0.000489  -0.000422
   10             0.080816   0.152690   0.089475   0.000489  -0.000422

                     16         17

                  0.217923   0.086615

    1             0.035399   0.028669
    2             0.035399   0.028669
    3             0.072188   0.014257
    4             0.072188   0.014257
    5             0.001070   0.000058
    6             0.001070   0.000058
    7             0.000146   0.000165
    8             0.000146   0.000165
    9             0.000158   0.000160
   10             0.000158   0.000160
 WARNING! MCSCF POPULATIONS SHOWN ABOVE ARE FOR THE NATURAL ORBITALS.
 IGNORE THE ABOVE DATA FOR MCSCF FUNCTIONS WHICH ARE NOT OF -FORS- TYPE.
 THE FOLLOWING POPULATIONS ARE CORRECT FOR ANY MCSCF WAVEFUNCTION.

               ----- POPULATIONS IN EACH AO -----
                             MULLIKEN      LOWDIN
              1  C  1  S      1.99653     1.98002
              2  C  1  S      0.66488     0.35241
              3  C  1  X      0.73465     0.65369
              4  C  1  Y      0.54633     0.50658
              5  C  1  Z      0.71113     0.63093
              6  C  1  S      0.51207     0.30526
              7  C  1  X      0.29083     0.40409
              8  C  1  Y      0.43228     0.46228
              9  C  1  Z      0.21119     0.35600
             10  C  1 XX      0.02881     0.18031
             11  C  1 YY     -0.01717     0.10348
             12  C  1 ZZ      0.02349     0.17771
             13  C  1 XY      0.00368     0.00692
             14  C  1 XZ      0.01528     0.02822
             15  C  1 YZ      0.00564     0.01225
             16  C  2  S      1.99653     1.98002
             17  C  2  S      0.66488     0.35241
             18  C  2  X      0.73465     0.65369
             19  C  2  Y      0.54633     0.50658
             20  C  2  Z      0.71113     0.63093
             21  C  2  S      0.51207     0.30526
             22  C  2  X      0.29083     0.40409
             23  C  2  Y      0.43228     0.46228
             24  C  2  Z      0.21119     0.35600
             25  C  2 XX      0.02881     0.18031
             26  C  2 YY     -0.01717     0.10348
             27  C  2 ZZ      0.02349     0.17771
             28  C  2 XY      0.00368     0.00692
             29  C  2 XZ      0.01528     0.02822
             30  C  2 YZ      0.00564     0.01225
             31  C  3  S      1.99640     1.98119
             32  C  3  S      0.65483     0.35678
             33  C  3  X      0.72183     0.64881
             34  C  3  Y      0.60131     0.55178
             35  C  3  Z      0.67836     0.61781
             36  C  3  S      0.59289     0.33524
             37  C  3  X      0.29193     0.41415
             38  C  3  Y      0.42587     0.47973
             39  C  3  Z      0.35334     0.43479
             40  C  3 XX      0.02410     0.17612
             41  C  3 YY     -0.00190     0.12903
             42  C  3 ZZ      0.01313     0.15637
             43  C  3 XY      0.00912     0.01534
             44  C  3 XZ      0.00779     0.01303
             45  C  3 YZ      0.00875     0.01385
             46  C  4  S      1.99640     1.98119
             47  C  4  S      0.65483     0.35678
             48  C  4  X      0.72183     0.64881
             49  C  4  Y      0.60131     0.55178
             50  C  4  Z      0.67836     0.61781
             51  C  4  S      0.59289     0.33524
             52  C  4  X      0.29193     0.41415
             53  C  4  Y      0.42587     0.47973
             54  C  4  Z      0.35334     0.43479
             55  C  4 XX      0.02410     0.17612
             56  C  4 YY     -0.00190     0.12903
             57  C  4 ZZ      0.01313     0.15637
             58  C  4 XY      0.00912     0.01534
             59  C  4 XZ      0.00779     0.01303
             60  C  4 YZ      0.00875     0.01385
             61  H  5  S      0.52353     0.48897
             62  H  5  S      0.29030     0.34997
             63  H  6  S      0.52353     0.48897
             64  H  6  S      0.29030     0.34997
             65  H  7  S      0.52133     0.48055
             66  H  7  S      0.30050     0.35561
             67  H  8  S      0.52133     0.48055
             68  H  8  S      0.30050     0.35561
             69  H  9  S      0.52260     0.48253
             70  H  9  S      0.30436     0.35822
             71  H 10  S      0.52260     0.48253
             72  H 10  S      0.30436     0.35822

          ----- MULLIKEN ATOMIC OVERLAP POPULATIONS -----
          (OFF-DIAGONAL ELEMENTS NEED TO BE MULTIPLIED BY 2)

             1           2           3           4           5

    1    5.0088764
    2    0.3867678   5.0088764
    3    0.5530986  -0.0570075   5.1567422
    4   -0.0570075   0.5530986  -0.0194553   5.1567422
    5    0.3946694  -0.0416476  -0.0433813   0.0028911   0.5028401
    6   -0.0416476   0.3946694   0.0028911  -0.0433813  -0.0022934
    7   -0.0386869   0.0029248   0.3911249   0.0000994  -0.0029459
    8    0.0029248  -0.0386869   0.0000994   0.3911249  -0.0001098
    9   -0.0454379  -0.0039280   0.3931408   0.0004933   0.0038002
   10   -0.0039280  -0.0454379   0.0004933   0.3931408   0.0000107

             6           7           8           9          10

    6    0.5028401
    7   -0.0001098   0.4996135
    8   -0.0029459   0.0000099   0.4996135
    9    0.0000107  -0.0301424  -0.0000578   0.5082370
   10    0.0038002  -0.0000578  -0.0301424   0.0008452   0.5082370

          TOTAL MULLIKEN AND LOWDIN ATOMIC POPULATIONS
       ATOM         MULL.POP.    CHARGE          LOW.POP.     CHARGE
    1 CARBON        6.159629   -0.159629         6.160135   -0.160135
    2 CARBON        6.159629   -0.159629         6.160135   -0.160135
    3 CARBON        6.377746   -0.377746         6.324021   -0.324021
    4 CARBON        6.377746   -0.377746         6.324021   -0.324021
    5 HYDROGEN      0.813834    0.186166         0.838939    0.161061
    6 HYDROGEN      0.813834    0.186166         0.838939    0.161061
    7 HYDROGEN      0.821830    0.178170         0.836154    0.163846
    8 HYDROGEN      0.821830    0.178170         0.836154    0.163846
    9 HYDROGEN      0.826961    0.173039         0.840751    0.159249
   10 HYDROGEN      0.826961    0.173039         0.840751    0.159249

          ---------------------
          ELECTROSTATIC MOMENTS
          ---------------------

 POINT   1           X           Y           Z (BOHR)    CHARGE
                 0.000000    0.000000    0.000000        0.00 (A.U.)
         DX          DY          DZ         /D/  (DEBYE)
    -0.032989   -0.047770    0.000000    0.058054
 ...... END OF PROPERTY EVALUATION ......
 CPU     0: STEP CPU TIME=     0.01 TOTAL CPU TIME=        3.8 (    0.1 MIN)
 TOTAL WALL CLOCK TIME=        3.8 SECONDS, CPU UTILIZATION IS 100.00%
                   580000  WORDS OF DYNAMIC MEMORY USED
 EXECUTION OF GAMESS TERMINATED NORMALLY Thu Nov 16 14:37:51 2023
 DDI: 263624 bytes (0.3 MB / 0 MWords) used by master data server.

 ----------------------------------------
 CPU timing information for all processes
 ========================================
 0: 3.057619 + 0.546003 = 3.603622
 1: 2.683217 + 0.577203 = 3.260420
 2: 2.511616 + 0.514803 = 3.026419
 3: 2.371215 + 0.514803 = 2.886018
 4: 0.546003 + 0.031200 = 0.577203
 5: 0.062400 + 0.015600 = 0.078000
 6: 0.031200 + 0.078000 = 0.109200
 7: 0.031200 + 0.062400 = 0.093600
 ----------------------------------------
           Disk usage (in bytes)       
 ========================================
 ----------------------------------------
            Local date and time          
 ========================================
16.11.2023 - 14:37:57.50                          
