          ******************************************************
          *         GAMESS VERSION =  1 MAY 2013 (R1)          *
          *             FROM IOWA STATE UNIVERSITY             *
          * M.W.SCHMIDT, K.K.BALDRIDGE, J.A.BOATZ, S.T.ELBERT, *
          *   M.S.GORDON, J.H.JENSEN, S.KOSEKI, N.MATSUNAGA,   *
          *          K.A.NGUYEN, S.J.SU, T.L.WINDUS,           *
          *       TOGETHER WITH M.DUPUIS, J.A.MONTGOMERY       *
          *         J.COMPUT.CHEM.  14, 1347-1363(1993)        *
          *************** 64 BIT WINDOWS VERSION ***************

  SINCE 1993, STUDENTS AND POSTDOCS WORKING AT IOWA STATE UNIVERSITY
  AND ALSO IN THEIR VARIOUS JOBS AFTER LEAVING ISU HAVE MADE IMPORTANT
  CONTRIBUTIONS TO THE CODE:
     IVANA ADAMOVIC, CHRISTINE AIKENS, YURI ALEXEEV, POOJA ARORA,
     ANDREY ASADCHEV, ROB BELL, PRADIPTA BANDYOPADHYAY, JONATHAN BENTZ,
     BRETT BODE, GALINA CHABAN, WEI CHEN, CHEOL HO CHOI, PAUL DAY,
     ALBERT DEFUSCO, TIM DUDLEY, DMITRI FEDOROV, GRAHAM FLETCHER,
     MARK FREITAG, KURT GLAESEMANN, DAN KEMP, GRANT MERRILL,
     NORIYUKI MINEZAWA, JONATHAN MULLIN, TAKESHI NAGATA,
     SEAN NEDD, HEATHER NETZLOFF, BOSILJKA NJEGIC, RYAN OLSON, MIKE PAK,
     JIM SHOEMAKER, LYUDMILA SLIPCHENKO, SAROM SOK, JIE SONG,
     TETSUYA TAKETSUGU, SIMON WEBB, SOOHAENG YOO, FEDERICO ZAHARIEV

  ADDITIONAL CODE HAS BEEN PROVIDED BY COLLABORATORS IN OTHER GROUPS:
     IOWA STATE UNIVERSITY:
          JOE IVANIC, LAIMUTIS BYTAUTAS, KLAUS RUEDENBERG
     UNIVERSITY OF TOKYO: KIMIHIKO HIRAO, TAKAHITO NAKAJIMA,
          TAKAO TSUNEDA, MUNEAKI KAMIYA, SUSUMU YANAGISAWA,
          KIYOSHI YAGI, MAHITO CHIBA, SEIKEN TOKURA, NAOAKI KAWAKAMI
     UNIVERSITY OF AARHUS: FRANK JENSEN
     UNIVERSITY OF IOWA: VISVALDAS KAIRYS, HUI LI
     NATIONAL INST. OF STANDARDS AND TECHNOLOGY: WALT STEVENS, DAVID GARMER
     UNIVERSITY OF PISA: BENEDETTA MENNUCCI, JACOPO TOMASI
     UNIVERSITY OF MEMPHIS: HENRY KURTZ, PRAKASHAN KORAMBATH
     UNIVERSITY OF ALBERTA: TOBY ZENG, MARIUSZ KLOBUKOWSKI
     UNIVERSITY OF NEW ENGLAND: MARK SPACKMAN
     MIE UNIVERSITY: HIROAKI UMEDA
     MICHIGAN STATE UNIVERSITY:
          KAROL KOWALSKI, MARTA WLOCH, JEFFREY GOUR, JESSE LUTZ,
          WEI LI, PIOTR PIECUCH
     UNIVERSITY OF SILESIA: MONIKA MUSIAL, STANISLAW KUCHARSKI
     FACULTES UNIVERSITAIRES NOTRE-DAME DE LA PAIX:
          OLIVIER QUINET, BENOIT CHAMPAGNE
     UNIVERSITY OF CALIFORNIA - SANTA BARBARA: BERNARD KIRTMAN
     INSTITUTE FOR MOLECULAR SCIENCE:
          KAZUYA ISHIMURA, MICHIO KATOUDA, AND SHIGERU NAGASE
     UNIVERSITY OF NOTRE DAME: DAN CHIPMAN
     KYUSHU UNIVERSITY:
          HARUYUKI NAKANO,
          FENG LONG GU, JACEK KORCHOWIEC, MARCIN MAKOWSKI, AND YURIKO AOKI,
          HIROTOSHI MORI AND EISAKU MIYOSHI
     PENNSYLVANIA STATE UNIVERSITY:
          TZVETELIN IORDANOV, CHET SWALINA, JONATHAN SKONE,
          SHARON HAMMES-SCHIFFER
     WASEDA UNIVERSITY:
          MASATO KOBAYASHI, TOMOKO AKAMA, TSUGUKI TOUMA,
          TAKESHI YOSHIKAWA, YASUHIRO IKABATA, HIROMI NAKAI
     NANJING UNIVERSITY: SHUHUA LI
     UNIVERSITY OF NEBRASKA:
          PEIFENG SU, DEJUN SI, NANDUN THELLAMUREGE, YALI WANG, HUI LI
     UNIVERSITY OF ZURICH:
          ROBERTO PEVERATI, KIM BALDRIDGE
     N. COPERNICUS UNIVERSITY AND JACKSON STATE UNIVERSITY:
          MARIA BARYSZ


 PARALLEL VERSION RUNNING ON     4 PROCESSORS IN     4 NODES.

 EXECUTION OF GAMESS BEGUN Fri Nov 17 10:58:52 2023

            ECHO OF THE FIRST FEW INPUT CARDS -
 INPUT CARD> $CONTRL                                                                        
 INPUT CARD>! runtyp=hessian                                                                
 INPUT CARD> scftyp=mcscf                                                                   
 INPUT CARD> $END                                                                           
 INPUT CARD> $basis gbasis=n31 ngauss=6 ndfunc=1 $end                                       
 INPUT CARD> $Guess guess=moread norb=17 norder=0 iorder(17)=19,17,18  prtmo=.t. $end       
 INPUT CARD> $dEt group=cs  ncore=13 nact=4 neLs=4 SZ=0 nstate=1 $end                       
 INPUT CARD> $DATA                                                                          
 INPUT CARD> C4H6                                                                           
 INPUT CARD>Cs                                                                              
 INPUT CARD>                                                                                
 INPUT CARD>CARBON      6.0     -0.823047222        -0.120269484         0.735582760        
 INPUT CARD>CARBON      6.0      0.517107777         0.075564270         1.250000000        
 INPUT CARD>HYDROGEN    1.0     -1.794762132        -0.262263940         1.205477480        
 INPUT CARD>HYDROGEN    1.0      0.492785102         0.731633825         2.114018692        
 INPUT CARD>HYDROGEN    1.0      1.449362034        -0.447844877         1.064283697        
 INPUT CARD> $END                                                                           
 INPUT CARD>--- NATURAL ORBITALS OF MCSCF --- GENERATED AT Thu Nov 16 14:37:51 2023         
 INPUT CARD> C4H6                                                                           
 INPUT CARD>E(MCSCF)=     -154.8971343840, E(NUC)=      104.3421852331                      
 INPUT CARD> $VEC                                                                           
 INPUT CARD> 1  1 7.02622565E-01 1.96020563E-02 8.93737019E-05-2.18371585E-04 5.46579801E-05
 INPUT CARD> 1  2-6.33217814E-03-3.73788828E-04-1.59187311E-04-7.10208063E-04-1.43963057E-03
 INPUT CARD> 1  3-1.80990123E-03-1.69461609E-03 5.49819502E-05 1.29466870E-04 4.44985832E-05
 INPUT CARD> 1  4 7.02622565E-01 1.96020563E-02 8.93737019E-05-2.18371585E-04-5.46579801E-05
 INPUT CARD> 1  5-6.33217814E-03-3.73788828E-04-1.59187311E-04 7.10208063E-04-1.43963057E-03
 INPUT CARD> 1  6-1.80990123E-03-1.69461609E-03 5.49819502E-05-1.29466870E-04-4.44985832E-05
 INPUT CARD> 1  7 4.15943459E-02 9.12158532E-04 1.01246557E-04-6.19804216E-05 1.87297071E-04
 INPUT CARD> 1  8 2.10132091E-03-9.25604908E-04-2.79248944E-04-8.39172755E-04-2.48624071E-04
 INPUT CARD> 1  9-1.75600450E-04-2.10086113E-04-2.08999973E-06 1.50907720E-05-5.38650658E-06
 INPUT CARD> 1 10 4.15943459E-02 9.12158532E-04 1.01246557E-04-6.19804216E-05-1.87297071E-04
 INPUT CARD> 1 11 2.10132091E-03-9.25604908E-04-2.79248944E-04 8.39172755E-04-2.48624071E-04
 INPUT CARD> 1 12-1.75600450E-04-2.10086113E-04-2.08999973E-06-1.50907720E-05 5.38650658E-06
 INPUT CARD> 1 13-1.31754533E-04 1.32343337E-03-1.31754533E-04 1.32343337E-03-3.52831714E-05
 INPUT CARD> 1 14 3.15032624E-04-3.52831714E-05 3.15032624E-04-1.04684559E-04 1.02451529E-04
 INPUT CARD> 1 15-1.04684559E-04 1.02451529E-04                                             
 INPUT CARD> 2  1 7.02698961E-01 1.95985672E-02 1.61832707E-04-5.00991540E-05-1.65067170E-04
 INPUT CARD> 2  2-1.21991617E-02-1.66868836E-03-2.51913100E-04 1.45248136E-03-1.10032675E-03
 INPUT CARD> 2  3-1.57040484E-03-6.95027255E-04 7.36164378E-05 2.80973187E-04 8.94690045E-06
 INPUT CARD> 2  4-7.02698961E-01-1.95985672E-02-1.61832707E-04 5.00991540E-05-1.65067170E-04
 INPUT CARD> 2  5 1.21991617E-02 1.66868836E-03 2.51913100E-04 1.45248136E-03 1.10032675E-03
 INPUT CARD> 2  6 1.57040484E-03 6.95027255E-04-7.36164378E-05 2.80973187E-04 8.94690045E-06
 INPUT CARD> 2  7 4.50643850E-02 1.15270209E-03 1.19119915E-04-5.20506236E-05 1.26251642E-04
 INPUT CARD> 2  8 3.04011934E-03-1.05903021E-03-3.82752660E-04-1.27926482E-03-4.02731342E-04
 INPUT CARD> 2  9-9.03104885E-05-2.46092331E-04-5.55254815E-05-2.79023494E-05-6.06417382E-06
 INPUT CARD> 2 10-4.50643850E-02-1.15270209E-03-1.19119915E-04 5.20506236E-05 1.26251642E-04
 INPUT CARD> 2 11-3.04011934E-03 1.05903021E-03 3.82752660E-04-1.27926482E-03 4.02731342E-04
 INPUT CARD> 2 12 9.03104885E-05 2.46092331E-04 5.55254815E-05-2.79023494E-05-6.06417382E-06
 INPUT CARD> 2 13-7.97574409E-05 1.01870459E-03 7.97574409E-05-1.01870459E-03-7.08365567E-05
 INPUT CARD> 2 14 3.63450532E-04 7.08365567E-05-3.63450532E-04-1.21187355E-04 7.63664169E-05
    1000000 WORDS OF MEMORY AVAILABLE

     BASIS OPTIONS
     -------------
     GBASIS=N31          IGAUSS=       6      POLAR=POPN31  
     NDFUNC=       1     NFFUNC=       0     DIFFSP=       F
     NPFUNC=       0      DIFFS=       F     BASNAM=        


     RUN TITLE
     ---------
  C4H6                                                                           

 THE POINT GROUP OF THE MOLECULE IS CS      
 THE ORDER OF THE PRINCIPAL AXIS IS     0

 ATOM      ATOMIC                      COORDINATES (BOHR)
           CHARGE         X                   Y                   Z
 CARBON      6.0    -1.5553337245       -0.2272763694       -1.3900498577
 CARBON      6.0    -1.5553337245       -0.2272763694        1.3900498577
 CARBON      6.0     0.9771920046        0.1427957648       -2.3621574847
 CARBON      6.0     0.9771920046        0.1427957648        2.3621574847
 HYDROGEN    1.0    -3.3916086426       -0.4956069831       -2.2780221216
 HYDROGEN    1.0    -3.3916086426       -0.4956069831        2.2780221216
 HYDROGEN    1.0     0.9312288136        1.3825874526       -3.9949160608
 HYDROGEN    1.0     0.9312288136        1.3825874526        3.9949160608
 HYDROGEN    1.0     2.7388971013       -0.8463041025       -2.0112045605
 HYDROGEN    1.0     2.7388971013       -0.8463041025        2.0112045605

          INTERNUCLEAR DISTANCES (ANGS.)
          ------------------------------

                1 CARB       2 CARB       3 CARB       4 CARB       5 HYDR  

   1 CARB    0.0000000    1.4711655 *  1.4487896 *  2.4035193 *  1.0886659 *
   2 CARB    1.4711655 *  0.0000000    2.4035193 *  1.4487896 *  2.1753407 *
   3 CARB    1.4487896 *  2.4035193 *  0.0000000    2.5000000 *  2.3368467 *
   4 CARB    2.4035193 *  1.4487896 *  2.5000000 *  0.0000000    3.3894306  
   5 HYDR    1.0886659 *  2.1753407 *  2.3368467 *  3.3894306    0.0000000  
   6 HYDR    2.1753407 *  1.0886659 *  3.3894306    2.3368467 *  2.4109550 *
   7 HYDR    2.0874002 *  3.2522888    1.0851484 *  3.4274831    2.6544589 *
   8 HYDR    3.2522888    2.0874002 *  3.4274831    1.0851484 *  4.1520790  
   9 HYDR    2.3193089 *  2.9173050 *  1.0851478 *  2.5493066 *  3.2524941  
  10 HYDR    2.9173050 *  2.3193089 *  2.5493066 *  1.0851478 *  3.9636596  

                6 HYDR       7 HYDR       8 HYDR       9 HYDR      10 HYDR  

   1 CARB    2.1753407 *  2.0874002 *  3.2522888    2.3193089 *  2.9173050 *
   2 CARB    1.0886659 *  3.2522888    2.0874002 *  2.9173050 *  2.3193089 *
   3 CARB    3.3894306    1.0851484 *  3.4274831    1.0851478 *  2.5493066 *
   4 CARB    2.3368467 *  3.4274831    1.0851484 *  2.5493066 *  1.0851478 *
   5 HYDR    2.4109550 *  2.6544589 *  4.1520790    3.2524941    3.9636596  
   6 HYDR    0.0000000    4.1520790    2.6544589 *  3.9636596    3.2524941  
   7 HYDR    4.1520790    0.0000000    4.2280374    1.8461184 *  3.5224729  
   8 HYDR    2.6544589 *  4.2280374    0.0000000    3.5224729    1.8461184 *
   9 HYDR    3.9636596    1.8461184 *  3.5224729    0.0000000    2.1285674 *
  10 HYDR    3.2524941    3.5224729    1.8461184 *  2.1285674 *  0.0000000  

  * ... LESS THAN  3.000


     ATOMIC BASIS SET
     ----------------
 THE CONTRACTED PRIMITIVE FUNCTIONS HAVE BEEN UNNORMALIZED
 THE CONTRACTED BASIS FUNCTIONS ARE NOW NORMALIZED TO UNITY

  SHELL TYPE  PRIMITIVE        EXPONENT          CONTRACTION COEFFICIENT(S)

 CARBON    

      5   S       1          3047.5248800    0.001834737132
      5   S       2           457.3695180    0.014037322813
      5   S       3           103.9486850    0.068842622264
      5   S       4            29.2101553    0.232184443216
      5   S       5             9.2866630    0.467941348435
      5   S       6             3.1639270    0.362311985337

      6   L       7             7.8682723   -0.119332419775    0.068999066591
      6   L       8             1.8812885   -0.160854151696    0.316423960957
      6   L       9             0.5442493    1.143456437840    0.744308290898

      7   L      10             0.1687145    1.000000000000    1.000000000000

      8   D      11             0.8000000    1.000000000000

 CARBON    

     13   S      12          3047.5248800    0.001834737132
     13   S      13           457.3695180    0.014037322813
     13   S      14           103.9486850    0.068842622264
     13   S      15            29.2101553    0.232184443216
     13   S      16             9.2866630    0.467941348435
     13   S      17             3.1639270    0.362311985337

     14   L      18             7.8682723   -0.119332419775    0.068999066591
     14   L      19             1.8812885   -0.160854151696    0.316423960957
     14   L      20             0.5442493    1.143456437840    0.744308290898

     15   L      21             0.1687145    1.000000000000    1.000000000000

     16   D      22             0.8000000    1.000000000000

 HYDROGEN  

     19   S      23            18.7311370    0.033494604338
     19   S      24             2.8253944    0.234726953484
     19   S      25             0.6401217    0.813757326146

     20   S      26             0.1612778    1.000000000000

 HYDROGEN  

     23   S      27            18.7311370    0.033494604338
     23   S      28             2.8253944    0.234726953484
     23   S      29             0.6401217    0.813757326146

     24   S      30             0.1612778    1.000000000000

 HYDROGEN  

     27   S      31            18.7311370    0.033494604338
     27   S      32             2.8253944    0.234726953484
     27   S      33             0.6401217    0.813757326146

     28   S      34             0.1612778    1.000000000000

 TOTAL NUMBER OF BASIS SET SHELLS             =   28
 NUMBER OF CARTESIAN GAUSSIAN BASIS FUNCTIONS =   72
 NUMBER OF ELECTRONS                          =   30
 CHARGE OF MOLECULE                           =    0
 SPIN MULTIPLICITY                            =    1
 NUMBER OF OCCUPIED ORBITALS (ALPHA)          =   15
 NUMBER OF OCCUPIED ORBITALS (BETA )          =   15
 TOTAL NUMBER OF ATOMS                        =   10
 THE NUCLEAR REPULSION ENERGY IS      104.7323617001

     $NEO OPTIONS
     ------------
     NUNIQN=       0     BASNUC=DZSNB        NEOSCF=NONE    
     NEOCI =NONE         NUMULT=       2     NUCST =       1
     NAUXNB=       0     VNUCEX=       F     NUCOPT=       F
     NTAUXB=       0     NEOHSS=       F     HSSINI=READH   
     HSSUPD=POWELLUP     DIRNUC=       F     SYMNUC=       F
     QMTOLN= 0.0E+00     USRDEX=       F
     POSNEO=       F     POSPRP=       F
     NEONCI=       F     LOCORB=       0

     $CONTRL OPTIONS
     ---------------
 SCFTYP=MCSCF        RUNTYP=ENERGY       EXETYP=RUN     
 MPLEVL=       0     CITYP =NONE         CCTYP =NONE         VBTYP =NONE    
 DFTTYP=NONE         TDDFT =NONE    
 MULT  =       1     ICHARG=       0     NZVAR =       0     COORD =UNIQUE  
 PP    =NONE         RELWFN=NONE         LOCAL =NONE         NUMGRD=       F
 ISPHER=      -1     NOSYM =       0     MAXIT =      30     UNITS =ANGS    
 PLTORB=       F     MOLPLT=       F     AIMPAC=       F     FRIEND=        
 NPRINT=       7     IREST =       0     GEOM  =INPUT   
 NORMF =       0     NORMP =       0     ITOL  =      20     ICUT  =       9
 INTTYP=BEST         GRDTYP=BEST         QMTTOL= 1.0E-06

     $SYSTEM OPTIONS
     ---------------
  REPLICATED MEMORY=     1000000 WORDS (ON EVERY NODE).
 DISTRIBUTED MEMDDI=           0 MILLION WORDS IN AGGREGATE,
 MEMDDI DISTRIBUTED OVER   4 PROCESSORS IS           0 WORDS/PROCESSOR.
 TOTAL MEMORY REQUESTED ON EACH PROCESSOR=     1000000 WORDS.
 TIMLIM=      525600.00 MINUTES, OR     365.0 DAYS.
 PARALL= T  BALTYP=  DLB     KDIAG=    0  COREFL= F
 MXSEQ2=     300 MXSEQ3=     150

          ----------------
          PROPERTIES INPUT
          ----------------

     MOMENTS            FIELD           POTENTIAL          DENSITY
 IEMOM =       1   IEFLD =       0   IEPOT =       0   IEDEN =       0
 WHERE =COMASS     WHERE =NUCLEI     WHERE =NUCLEI     WHERE =NUCLEI  
 OUTPUT=BOTH       OUTPUT=BOTH       OUTPUT=BOTH       OUTPUT=BOTH    
 IEMINT=       0   IEFINT=       0                     IEDINT=       0
                                                       MORB  =       0

     -------------------------------
     INTEGRAL TRANSFORMATION OPTIONS
     -------------------------------
     NWORD  =            0
     CUTOFF = 1.0E-09     MPTRAN =       0
     DIRTRF =       F     AOINTS =DUP     

          ----------------------
          MCSCF INPUT PARAMETERS
          ----------------------
 CONVERGER SELECTION: FOCAS = F  SOSCF = T  FULLNR = F  QUD = F  JACOBI = F
 SECULAR EQUATION METHOD CISTEP = ALDET   
 --- GENERAL INPUT OPTIONS:
 MAXIT =      60  MICIT =       5  ACURCY= 1.000E-05
 DAMP  =   0.000  CANONC=       T  ENGTOL= 1.000E-10
 EKT   =       F  NPUNCH=       2  NWORD =         0
 REGENERATE CI AFTER CONVERGENCE = NONE    
 DIABATIZATION AFTER CONVERGENCE =        F
 --- INPUT FOR SOSCF CONVERGER:
 FORS  =       T  NOFO  =       1

          ----------------------
          INTEGRAL INPUT OPTIONS
          ----------------------
 NOPK  =       1 NORDER=       0 SCHWRZ=       T

     ------------------------------------------
     THE POINT GROUP IS CS , NAXIS= 0, ORDER= 2
     ------------------------------------------

     DIMENSIONS OF THE SYMMETRY SUBSPACES ARE
 A'  =   36     A'' =   36

 ..... DONE SETTING UP THE RUN .....
 CPU     0: STEP CPU TIME=     0.04 TOTAL CPU TIME=        0.0 (    0.0 MIN)
 TOTAL WALL CLOCK TIME=        0.0 SECONDS, CPU UTILIZATION IS 100.00%

          ********************
          1 ELECTRON INTEGRALS
          ********************
 TIME TO DO   DIPOLE INTEGRALS=      0.00
 ...... END OF ONE-ELECTRON INTEGRALS ......
 CPU     0: STEP CPU TIME=     0.00 TOTAL CPU TIME=        0.0 (    0.0 MIN)
 TOTAL WALL CLOCK TIME=        0.0 SECONDS, CPU UTILIZATION IS 100.00%

          -------------
          GUESS OPTIONS
          -------------
          GUESS =MOREAD            NORB  =      17          NORDER=       0
          MIX   =       F          PRTMO =       T          PUNMO =       F
          TOLZ  = 1.0E-08          TOLE  = 1.0E-05
          SYMDEN=       F          PURIFY=       F

 INITIAL GUESS ORBITALS GENERATED BY MOREAD   ROUTINE.
 EIGENVALUES ARE DIAGONAL OF 1E- H IN MO BASIS

 SYMMETRIES FOR INITIAL GUESS ORBITALS FOLLOW.   BOTH SET(S).
    15 ORBITALS ARE OCCUPIED (    4 CORE ORBITALS).
     1=A'       2=A''      3=A''      4=A'       5=A'       6=A''      7=A'  
     8=A''      9=A'      10=A'      11=A''     12=A''     13=A'      14=A'  
    15=A''     16=A'      17=A''     18=A'      19=A'      20=A'      21=A'  
    22=A'      23=A'      24=A'      25=A'      26=A'      27=A'      28=A'  
    29=A'      30=A'      31=A'      32=A'      33=A'      34=A'      35=A'  
    36=A'      37=A'      38=A'      39=A'      40=A'      41=A'      42=A'  
    43=A'      44=A'      45=A''     46=A''     47=A''     48=A''     49=A'' 
    50=A''     51=A''     52=A''     53=A''     54=A''     55=A''     56=A'' 
    57=A''     58=A''     59=A''     60=A''     61=A''     62=A''     63=A'' 
    64=A''     65=A''     66=A''     67=A''     68=A''     69=A''     70=A'' 
    71=A''     72=A'' 

                              ----------------------
                              INITIAL GUESS ORBITALS
                              ----------------------

                      1          2          3          4          5
                  -25.1528   -25.1540   -24.4349   -24.4341   -11.0001
                     A'         A''        A''        A'         A'  
    1  C  1  S    0.702930   0.703197  -0.044963  -0.042098  -0.125559
    2  C  1  S    0.019611   0.019612  -0.001252  -0.001401   0.256517
    3  C  1  X    0.000089   0.000162  -0.000105  -0.000201   0.050198
    4  C  1  Y   -0.000218  -0.000050   0.000030  -0.000028  -0.009476
    5  C  1  Z    0.000055  -0.000165  -0.000137  -0.000091  -0.018616
    6  C  1  S   -0.006335  -0.012208   0.002817   0.002768   0.179313
    7  C  1  X   -0.000374  -0.001670   0.000896   0.000979   0.002523
    8  C  1  Y   -0.000159  -0.000252  -0.000013   0.000184  -0.012157
    9  C  1  Z   -0.000711   0.001454   0.001299   0.000654  -0.003821
   10  C  1 XX   -0.001440  -0.001101  -0.000104  -0.000102   0.006921
   11  C  1 YY   -0.001811  -0.001572   0.000099   0.000014  -0.010902
   12  C  1 ZZ   -0.001695  -0.000696  -0.000209  -0.000029   0.013140
   13  C  1 XY    0.000055   0.000074  -0.000006   0.000024   0.002871
   14  C  1 XZ    0.000130   0.000281  -0.000054  -0.000070   0.002801
   15  C  1 YZ    0.000045   0.000009  -0.000055  -0.000061   0.001275
   16  C  2  S    0.702930  -0.703197   0.044963  -0.042098  -0.125559
   17  C  2  S    0.019611  -0.019612   0.001252  -0.001401   0.256517
   18  C  2  X    0.000089  -0.000162   0.000105  -0.000201   0.050198
   19  C  2  Y   -0.000218   0.000050  -0.000030  -0.000028  -0.009476
   20  C  2  Z   -0.000055  -0.000165  -0.000137   0.000091   0.018616
   21  C  2  S   -0.006335   0.012208  -0.002817   0.002768   0.179313
   22  C  2  X   -0.000374   0.001670  -0.000896   0.000979   0.002523
   23  C  2  Y   -0.000159   0.000252   0.000013   0.000184  -0.012157
   24  C  2  Z    0.000711   0.001454   0.001299  -0.000654   0.003821
   25  C  2 XX   -0.001440   0.001101   0.000104  -0.000102   0.006921
   26  C  2 YY   -0.001811   0.001572  -0.000099   0.000014  -0.010902
   27  C  2 ZZ   -0.001695   0.000696   0.000209  -0.000029   0.013140
   28  C  2 XY    0.000055  -0.000074   0.000006   0.000024   0.002871
   29  C  2 XZ   -0.000130   0.000281  -0.000054   0.000070  -0.002801
   30  C  2 YZ   -0.000045   0.000009  -0.000055   0.000061  -0.001275
   31  C  3  S    0.041613   0.045096   0.702755   0.702786  -0.091481
   32  C  3  S    0.000913   0.001154   0.019757   0.019648   0.178304
   33  C  3  X    0.000101   0.000119  -0.000068  -0.000111  -0.061236
   34  C  3  Y   -0.000062  -0.000052   0.000021  -0.000014  -0.017283
   35  C  3  Z    0.000187   0.000126  -0.000185  -0.000042  -0.049569
   36  C  3  S    0.002102   0.003042  -0.008700  -0.007846   0.129835
   37  C  3  X   -0.000926  -0.001060   0.000455   0.000472  -0.006810
   38  C  3  Y   -0.000279  -0.000383   0.000196   0.000036  -0.005676
   39  C  3  Z   -0.000840  -0.001280   0.000546   0.000208  -0.001367
   40  C  3 XX   -0.000249  -0.000403  -0.001320  -0.001381   0.006730
   41  C  3 YY   -0.000176  -0.000090  -0.001636  -0.001770  -0.003099
   42  C  3 ZZ   -0.000210  -0.000246  -0.001432  -0.001557   0.002914
   43  C  3 XY   -0.000002  -0.000056  -0.000046  -0.000049  -0.001270
   44  C  3 XZ    0.000015  -0.000028   0.000219   0.000221   0.007984
   45  C  3 YZ   -0.000005  -0.000006   0.000175   0.000178   0.006128
   46  C  4  S    0.041613  -0.045096  -0.702755   0.702786  -0.091481
   47  C  4  S    0.000913  -0.001154  -0.019757   0.019648   0.178304
   48  C  4  X    0.000101  -0.000119   0.000068  -0.000111  -0.061236
   49  C  4  Y   -0.000062   0.000052  -0.000021  -0.000014  -0.017283
   50  C  4  Z   -0.000187   0.000126  -0.000185   0.000042   0.049569
   51  C  4  S    0.002102  -0.003042   0.008700  -0.007846   0.129835
   52  C  4  X   -0.000926   0.001060  -0.000455   0.000472  -0.006810
   53  C  4  Y   -0.000279   0.000383  -0.000196   0.000036  -0.005676
   54  C  4  Z    0.000840  -0.001280   0.000546  -0.000208   0.001367
   55  C  4 XX   -0.000249   0.000403   0.001320  -0.001381   0.006730
   56  C  4 YY   -0.000176   0.000090   0.001636  -0.001770  -0.003099
   57  C  4 ZZ   -0.000210   0.000246   0.001432  -0.001557   0.002914
   58  C  4 XY   -0.000002   0.000056   0.000046  -0.000049  -0.001270
   59  C  4 XZ   -0.000015  -0.000028   0.000219  -0.000221  -0.007984
   60  C  4 YZ    0.000005  -0.000006   0.000175  -0.000178  -0.006128
   61  H  5  S   -0.000132  -0.000080  -0.000063  -0.000041   0.065325
   62  H  5  S    0.001324   0.001019  -0.000248   0.000147   0.009216
   63  H  6  S   -0.000132   0.000080   0.000063  -0.000041   0.065325
   64  H  6  S    0.001324  -0.001019   0.000248   0.000147   0.009216
   65  H  7  S   -0.000035  -0.000071  -0.000111  -0.000091   0.042872
   66  H  7  S    0.000315   0.000364   0.001404   0.001456   0.007396
   67  H  8  S   -0.000035   0.000071   0.000111  -0.000091   0.042872
   68  H  8  S    0.000315  -0.000364  -0.001404   0.001456   0.007396
   69  H  9  S   -0.000105  -0.000121  -0.000054  -0.000112   0.046285
   70  H  9  S    0.000102   0.000076   0.001642   0.001332   0.006940
   71  H 10  S   -0.000105   0.000121   0.000054  -0.000112   0.046285
   72  H 10  S    0.000102  -0.000076  -0.001642   0.001332   0.006940

                      6          7          8          9         10
                  -10.4761    -9.6568    -9.4819    -9.7122    -9.9759
                     A''        A'         A''        A'         A'  
    1  C  1  S    0.080694   0.074498  -0.097015   0.014778   0.011564
    2  C  1  S   -0.202331  -0.180498   0.254927  -0.157016   0.031670
    3  C  1  X   -0.077636   0.127913  -0.063845  -0.253589  -0.193744
    4  C  1  Y   -0.011479   0.036603  -0.003329   0.037236  -0.057081
    5  C  1  Z   -0.129907   0.141659   0.155254   0.257980  -0.253897
    6  C  1  S   -0.148211  -0.165214   0.233310  -0.114901   0.037372
    7  C  1  X    0.010465   0.042372  -0.083041  -0.100733  -0.076387
    8  C  1  Y    0.001641   0.019337  -0.007545   0.024248  -0.022515
    9  C  1  Z   -0.023976   0.034300   0.046215   0.088690  -0.084520
   10  C  1 XX   -0.012813  -0.002232   0.018412   0.008917  -0.000533
   11  C  1 YY    0.007233   0.007381  -0.008313   0.005956  -0.002005
   12  C  1 ZZ    0.004096  -0.014502  -0.005261  -0.013745   0.009170
   13  C  1 XY   -0.003769  -0.000625   0.004316   0.003843  -0.002677
   14  C  1 XZ   -0.008471   0.008218  -0.007208  -0.003651  -0.008788
   15  C  1 YZ   -0.000117  -0.001153  -0.001381  -0.001807   0.000204
   16  C  2  S   -0.080694   0.074498   0.097015   0.014778   0.011564
   17  C  2  S    0.202331  -0.180498  -0.254927  -0.157016   0.031670
   18  C  2  X    0.077636   0.127913   0.063845  -0.253589  -0.193744
   19  C  2  Y    0.011479   0.036603   0.003329   0.037236  -0.057081
   20  C  2  Z   -0.129907  -0.141659   0.155254  -0.257980   0.253897
   21  C  2  S    0.148211  -0.165214  -0.233310  -0.114901   0.037372
   22  C  2  X   -0.010465   0.042372   0.083041  -0.100733  -0.076387
   23  C  2  Y   -0.001641   0.019337   0.007545   0.024248  -0.022515
   24  C  2  Z   -0.023976  -0.034300   0.046215  -0.088690   0.084520
   25  C  2 XX    0.012813  -0.002232  -0.018412   0.008917  -0.000533
   26  C  2 YY   -0.007233   0.007381   0.008313   0.005956  -0.002005
   27  C  2 ZZ   -0.004096  -0.014502   0.005261  -0.013745   0.009170
   28  C  2 XY    0.003769  -0.000625  -0.004316   0.003843  -0.002677
   29  C  2 XZ   -0.008471  -0.008218  -0.007208   0.003651   0.008788
   30  C  2 YZ   -0.000117   0.001153  -0.001381   0.001807  -0.000204
   31  C  3  S    0.131051  -0.094182   0.050892  -0.005428  -0.008099
   32  C  3  S   -0.279176   0.190778  -0.065040   0.031573  -0.025164
   33  C  3  X    0.070458   0.062955  -0.228981  -0.023363   0.280576
   34  C  3  Y    0.008274   0.016394  -0.016893   0.164467  -0.047230
   35  C  3  Z    0.038794   0.045131  -0.114243   0.276206   0.069615
   36  C  3  S   -0.244041   0.189306  -0.082439   0.073587   0.008138
   37  C  3  X    0.006561   0.025321  -0.081158  -0.020095   0.113855
   38  C  3  Y    0.003185   0.008438  -0.009377   0.070254  -0.022685
   39  C  3  Z    0.006835   0.017243  -0.053057   0.100537   0.013821
   40  C  3 XX   -0.011110   0.005929   0.001473  -0.005298   0.004697
   41  C  3 YY    0.003602   0.001143  -0.005609   0.005742   0.004468
   42  C  3 ZZ   -0.003190   0.003763  -0.004750   0.004682  -0.001419
   43  C  3 XY    0.004017  -0.008250   0.011523   0.001119  -0.010694
   44  C  3 XZ   -0.008652  -0.003069   0.012172  -0.007796  -0.011886
   45  C  3 YZ   -0.010592   0.010350  -0.008790   0.011755   0.002499
   46  C  4  S   -0.131051  -0.094182  -0.050892  -0.005428  -0.008099
   47  C  4  S    0.279176   0.190778   0.065040   0.031573  -0.025164
   48  C  4  X   -0.070458   0.062955   0.228981  -0.023363   0.280576
   49  C  4  Y   -0.008274   0.016394   0.016893   0.164467  -0.047230
   50  C  4  Z    0.038794  -0.045131  -0.114243  -0.276206  -0.069615
   51  C  4  S    0.244041   0.189306   0.082439   0.073587   0.008138
   52  C  4  X   -0.006561   0.025321   0.081158  -0.020095   0.113855
   53  C  4  Y   -0.003185   0.008438   0.009377   0.070254  -0.022685
   54  C  4  Z    0.006835  -0.017243  -0.053057  -0.100537  -0.013821
   55  C  4 XX    0.011110   0.005929  -0.001473  -0.005298   0.004697
   56  C  4 YY   -0.003602   0.001143   0.005609   0.005742   0.004468
   57  C  4 ZZ    0.003190   0.003763   0.004750   0.004682  -0.001419
   58  C  4 XY   -0.004017  -0.008250  -0.011523   0.001119  -0.010694
   59  C  4 XZ   -0.008652   0.003069   0.012172   0.007796   0.011886
   60  C  4 YZ   -0.010592  -0.010350  -0.008790  -0.011755  -0.002499
   61  H  5  S   -0.064032  -0.099649   0.176906   0.134734   0.054637
   62  H  5  S   -0.008792  -0.038828   0.075264   0.115127   0.033643
   63  H  6  S    0.064032  -0.099649  -0.176906   0.134734   0.054637
   64  H  6  S    0.008792  -0.038828  -0.075264   0.115127   0.033643
   65  H  7  S   -0.088532   0.101756  -0.090833   0.200064   0.006858
   66  H  7  S   -0.023392   0.042281  -0.054518   0.132306   0.014419
   67  H  8  S    0.088532   0.101756   0.090833   0.200064   0.006858
   68  H  8  S    0.023392   0.042281   0.054518   0.132306   0.014419
   69  H  9  S   -0.080921   0.101922  -0.127782  -0.065990   0.149864
   70  H  9  S   -0.015627   0.047530  -0.079772  -0.045593   0.118558
   71  H 10  S    0.080921   0.101922   0.127782  -0.065990   0.149864
   72  H 10  S    0.015627   0.047530   0.079772  -0.045593   0.118558

                     11         12         13         14         15
                   -9.0922    -9.4063    -9.8661   -10.1104   -10.0600
                     A''        A''        A'         A'         A'' 
    1  C  1  S    0.013444   0.010471  -0.003245  -0.012190   0.002866
    2  C  1  S   -0.116352  -0.015747  -0.057606   0.119654  -0.059271
    3  C  1  X   -0.188926   0.266613   0.010190   0.053084  -0.070772
    4  C  1  Y    0.013902   0.042929   0.042682   0.331388  -0.280381
    5  C  1  Z   -0.045133   0.012442   0.387717  -0.104727   0.047641
    6  C  1  S   -0.076894  -0.051176  -0.069238   0.060947  -0.119818
    7  C  1  X   -0.043851   0.144601  -0.035876  -0.008848   0.037346
    8  C  1  Y   -0.006207   0.004363   0.057456   0.237614  -0.252030
    9  C  1  Z   -0.026930  -0.020688   0.175658  -0.024365   0.057410
   10  C  1 XX   -0.009955  -0.013832   0.024133   0.005617  -0.012181
   11  C  1 YY    0.003664   0.001806   0.000009  -0.002314  -0.004452
   12  C  1 ZZ    0.011817   0.004435  -0.024026  -0.001444   0.021307
   13  C  1 XY    0.002763   0.000605  -0.000235   0.008604  -0.011788
   14  C  1 XZ   -0.013431   0.025005  -0.000038  -0.002362   0.000483
   15  C  1 YZ    0.004200   0.004717  -0.007529  -0.006978  -0.016883
   16  C  2  S   -0.013444  -0.010471  -0.003245  -0.012190  -0.002866
   17  C  2  S    0.116352   0.015747  -0.057606   0.119654   0.059271
   18  C  2  X    0.188926  -0.266613   0.010190   0.053084   0.070772
   19  C  2  Y   -0.013902  -0.042929   0.042682   0.331388   0.280381
   20  C  2  Z   -0.045133   0.012442  -0.387717   0.104727   0.047641
   21  C  2  S    0.076894   0.051176  -0.069238   0.060947   0.119818
   22  C  2  X    0.043851  -0.144601  -0.035876  -0.008848  -0.037346
   23  C  2  Y    0.006207  -0.004363   0.057456   0.237614   0.252030
   24  C  2  Z   -0.026930  -0.020688  -0.175658   0.024365   0.057410
   25  C  2 XX    0.009955   0.013832   0.024133   0.005617   0.012181
   26  C  2 YY   -0.003664  -0.001806   0.000009  -0.002314   0.004452
   27  C  2 ZZ   -0.011817  -0.004435  -0.024026  -0.001444  -0.021307
   28  C  2 XY   -0.002763  -0.000605  -0.000235   0.008604   0.011788
   29  C  2 XZ   -0.013431   0.025005   0.000038   0.002362   0.000483
   30  C  2 YZ    0.004200   0.004717   0.007529   0.006978  -0.016883
   31  C  3  S   -0.003646  -0.013154   0.006872  -0.000115  -0.015480
   32  C  3  S   -0.005845   0.026880   0.052266  -0.002149   0.053750
   33  C  3  X    0.001446  -0.235067  -0.006867   0.057466  -0.102221
   34  C  3  Y    0.248686   0.058135  -0.166954   0.116434  -0.208895
   35  C  3  Z    0.382681  -0.055880  -0.229610  -0.259659   0.415931
   36  C  3  S    0.004271   0.016212   0.035898  -0.016488   0.046779
   37  C  3  X   -0.031922  -0.121813   0.027933   0.060434  -0.104711
   38  C  3  Y    0.116467   0.028848  -0.075640   0.103801  -0.216946
   39  C  3  Z    0.191681   0.001280  -0.139806  -0.155870   0.292813
   40  C  3 XX   -0.019054  -0.011872   0.023404   0.007386  -0.010462
   41  C  3 YY    0.009009  -0.002971  -0.006727  -0.007270   0.007101
   42  C  3 ZZ    0.018657   0.007631  -0.020164  -0.002448   0.008612
   43  C  3 XY    0.003754   0.008933  -0.005585  -0.014085   0.014367
   44  C  3 XZ   -0.008533   0.010838   0.000410   0.006377  -0.007248
   45  C  3 YZ    0.018021   0.000128  -0.012458  -0.017106   0.021095
   46  C  4  S    0.003646   0.013154   0.006872  -0.000115   0.015480
   47  C  4  S    0.005845  -0.026880   0.052266  -0.002149  -0.053750
   48  C  4  X   -0.001446   0.235067  -0.006867   0.057466   0.102221
   49  C  4  Y   -0.248686  -0.058135  -0.166954   0.116434   0.208895
   50  C  4  Z    0.382681  -0.055880   0.229610   0.259659   0.415931
   51  C  4  S   -0.004271  -0.016212   0.035898  -0.016488  -0.046779
   52  C  4  X    0.031922   0.121813   0.027933   0.060434   0.104711
   53  C  4  Y   -0.116467  -0.028848  -0.075640   0.103801   0.216946
   54  C  4  Z    0.191681   0.001280   0.139806   0.155870   0.292813
   55  C  4 XX    0.019054   0.011872   0.023404   0.007386   0.010462
   56  C  4 YY   -0.009009   0.002971  -0.006727  -0.007270  -0.007101
   57  C  4 ZZ   -0.018657  -0.007631  -0.020164  -0.002448  -0.008612
   58  C  4 XY   -0.003754  -0.008933  -0.005585  -0.014085  -0.014367
   59  C  4 XZ   -0.008533   0.010838  -0.000410  -0.006377  -0.007248
   60  C  4 YZ    0.018021   0.000128   0.012458   0.017106   0.021095
   61  H  5  S    0.044695  -0.181021   0.095907  -0.009751   0.019267
   62  H  5  S    0.060444  -0.148703   0.101439   0.004334   0.010900
   63  H  6  S   -0.044695   0.181021   0.095907  -0.009751  -0.019267
   64  H  6  S   -0.060444   0.148703   0.101439   0.004334  -0.010900
   65  H  7  S    0.287599   0.016017  -0.182100  -0.110280   0.180440
   66  H  7  S    0.215060   0.009132  -0.165116  -0.107956   0.154195
   67  H  8  S   -0.287599  -0.016017  -0.182100  -0.110280  -0.180440
   68  H  8  S   -0.215060  -0.009132  -0.165116  -0.107956  -0.154195
   69  H  9  S   -0.118043  -0.139225   0.115090   0.046366  -0.042380
   70  H  9  S   -0.080546  -0.116374   0.099868   0.062360  -0.069883
   71  H 10  S    0.118043   0.139225   0.115090   0.046366   0.042380
   72  H 10  S    0.080546   0.116374   0.099868   0.062360   0.069883

                     16         17         18         19         20
                  -10.0488   -10.0777    -6.0301    -6.0916    -6.5885
                     A'         A''        A'         A'         A'  
    1  C  1  S    0.001453  -0.012567   0.119888   0.079056   0.112750
    2  C  1  S   -0.067489  -0.126112   0.413481  -0.196600  -1.052550
    3  C  1  X   -0.120428  -0.075688   0.059701  -0.331924   0.012456
    4  C  1  Y    0.239750   0.423084   0.016103  -0.015364  -0.003892
    5  C  1  Z   -0.043281  -0.130896   0.033851  -0.259794  -0.144553
    6  C  1  S   -0.038714   0.052590  -3.636214  -1.622016   0.182076
    7  C  1  X   -0.028807  -0.000492  -1.800548   1.514389   0.731108
    8  C  1  Y    0.187054   0.356636  -0.362132   0.004375   0.133690
    9  C  1  Z   -0.055866  -0.175742   0.759380   1.014327   0.077896
   10  C  1 XX   -0.012909  -0.013382   0.060198   0.299772   0.698951
   11  C  1 YY    0.006502   0.012984   0.394016   0.275949   0.421105
   12  C  1 ZZ    0.001545  -0.001727   0.228503   0.268792   0.444907
   13  C  1 XY   -0.010527  -0.004624  -0.088388  -0.054396   0.050046
   14  C  1 XZ    0.003172  -0.002056   0.167107  -0.077505  -0.131039
   15  C  1 YZ   -0.013824   0.007211   0.029276   0.012366  -0.033943
   16  C  2  S    0.001453   0.012567   0.119888   0.079056   0.112750
   17  C  2  S   -0.067489   0.126112   0.413481  -0.196600  -1.052550
   18  C  2  X   -0.120428   0.075688   0.059701  -0.331924   0.012456
   19  C  2  Y    0.239750  -0.423084   0.016103  -0.015364  -0.003892
   20  C  2  Z    0.043281  -0.130896  -0.033851   0.259794   0.144553
   21  C  2  S   -0.038714  -0.052590  -3.636214  -1.622016   0.182076
   22  C  2  X   -0.028807   0.000492  -1.800548   1.514389   0.731108
   23  C  2  Y    0.187054  -0.356636  -0.362132   0.004375   0.133690
   24  C  2  Z    0.055866  -0.175742  -0.759380  -1.014327  -0.077896
   25  C  2 XX   -0.012909   0.013382   0.060198   0.299772   0.698951
   26  C  2 YY    0.006502  -0.012984   0.394016   0.275949   0.421105
   27  C  2 ZZ    0.001545   0.001727   0.228503   0.268792   0.444907
   28  C  2 XY   -0.010527   0.004624  -0.088388  -0.054396   0.050046
   29  C  2 XZ   -0.003172  -0.002056  -0.167107   0.077505   0.131039
   30  C  2 YZ    0.013824   0.007211  -0.029276  -0.012366   0.033943
   31  C  3  S    0.001520  -0.001968  -0.133678   0.063848  -0.271337
   32  C  3  S   -0.034542  -0.056005  -0.414332  -0.071370   1.776476
   33  C  3  X   -0.088712  -0.012323   0.062721   0.222421   0.030642
   34  C  3  Y   -0.275574  -0.225948  -0.039544  -0.105914   0.007791
   35  C  3  Z    0.369230   0.292060   0.074016   0.064344   0.036232
   36  C  3  S    0.006155  -0.028327   4.184221  -1.393516   0.793284
   37  C  3  X   -0.074224  -0.035059  -2.150757  -0.858299   0.711432
   38  C  3  Y   -0.261812  -0.200817   0.132919   0.653653   0.095348
   39  C  3  Z    0.217186   0.170545   0.189218  -0.756223  -0.540774
   40  C  3 XX   -0.006710  -0.007468  -0.110413   0.180966  -1.216849
   41  C  3 YY    0.003633   0.003319  -0.383785   0.210774  -1.001576
   42  C  3 ZZ    0.004259   0.004591  -0.308002   0.216443  -1.062528
   43  C  3 XY    0.000172  -0.007932   0.055294   0.051176  -0.037309
   44  C  3 XZ   -0.004508  -0.006055  -0.159493   0.104364   0.136970
   45  C  3 YZ    0.002595  -0.002600  -0.109178   0.003485   0.001204
   46  C  4  S    0.001520   0.001968  -0.133678   0.063848  -0.271337
   47  C  4  S   -0.034542   0.056005  -0.414332  -0.071370   1.776476
   48  C  4  X   -0.088712   0.012323   0.062721   0.222421   0.030642
   49  C  4  Y   -0.275574   0.225948  -0.039544  -0.105914   0.007791
   50  C  4  Z   -0.369230   0.292060  -0.074016  -0.064344  -0.036232
   51  C  4  S    0.006155   0.028327   4.184221  -1.393516   0.793284
   52  C  4  X   -0.074224   0.035059  -2.150757  -0.858299   0.711432
   53  C  4  Y   -0.261812   0.200817   0.132919   0.653653   0.095348
   54  C  4  Z   -0.217186   0.170545  -0.189218   0.756223   0.540774
   55  C  4 XX   -0.006710   0.007468  -0.110413   0.180966  -1.216849
   56  C  4 YY    0.003633  -0.003319  -0.383785   0.210774  -1.001576
   57  C  4 ZZ    0.004259  -0.004591  -0.308002   0.216443  -1.062528
   58  C  4 XY    0.000172   0.007932   0.055294   0.051176  -0.037309
   59  C  4 XZ    0.004508  -0.006055   0.159493  -0.104364  -0.136970
   60  C  4 YZ   -0.002595  -0.002600   0.109178  -0.003485  -0.001204
   61  H  5  S   -0.016453  -0.074244   0.026245  -0.003480  -0.068318
   62  H  5  S   -0.022401  -0.018377  -0.148225   1.843521   0.558371
   63  H  6  S   -0.016453   0.074244   0.026245  -0.003480  -0.068318
   64  H  6  S   -0.022401   0.018377  -0.148225   1.843521   0.558371
   65  H  7  S    0.071253   0.034988  -0.161226  -0.106926   0.147088
   66  H  7  S    0.068554   0.030783  -0.677454  -0.187353  -0.742934
   67  H  8  S    0.071253  -0.034988  -0.161226  -0.106926   0.147088
   68  H  8  S    0.068554  -0.030783  -0.677454  -0.187353  -0.742934
   69  H  9  S   -0.021916   0.011255   0.019793   0.021073   0.112818
   70  H  9  S   -0.027669   0.011045   0.227914   1.224986  -0.594121
   71  H 10  S   -0.021916  -0.011255   0.019793   0.021073   0.112818
   72  H 10  S   -0.027669  -0.011045   0.227914   1.224986  -0.594121

                     21         22         23         24         25
                   -7.4741    -6.9393    -6.3094    -6.8606    -7.1704
                     A'         A'         A'         A'         A'  
    1  C  1  S   -0.287985  -0.046770  -0.006406   0.036042   0.004598
    2  C  1  S    1.996366   0.784272  -0.629281   0.342364  -0.225121
    3  C  1  X   -0.136584   0.107539   0.142817   0.000957  -0.295728
    4  C  1  Y   -0.007252   0.017401   0.080885   0.005320  -0.229361
    5  C  1  Z    0.000202   0.031081   0.050306   0.474047  -0.011706
    6  C  1  S    0.397271  -0.659333   0.823508  -0.231003   0.043039
    7  C  1  X    0.590548  -0.587064  -0.583213  -0.049008  -0.025847
    8  C  1  Y   -0.009613  -0.039212  -0.395461  -0.052263   0.293210
    9  C  1  Z    0.265400  -0.077488  -0.089944  -0.973214   0.143676
   10  C  1 XX   -1.099094  -0.266604   0.089458   0.392007  -0.398417
   11  C  1 YY   -1.100010  -0.166367  -0.050942   0.194608   0.071437
   12  C  1 ZZ   -1.011195  -0.207709   0.038701  -0.070459   0.066387
   13  C  1 XY   -0.033492   0.009052  -0.068356   0.000784  -0.035341
   14  C  1 XZ   -0.026028   0.002537   0.056448   0.008162   0.202828
   15  C  1 YZ   -0.004745   0.009232   0.035905   0.004230   0.011050
   16  C  2  S   -0.287985  -0.046770  -0.006406   0.036042   0.004598
   17  C  2  S    1.996366   0.784272  -0.629281   0.342364  -0.225121
   18  C  2  X   -0.136584   0.107539   0.142817   0.000957  -0.295728
   19  C  2  Y   -0.007252   0.017401   0.080885   0.005320  -0.229361
   20  C  2  Z   -0.000202  -0.031081  -0.050306  -0.474047   0.011706
   21  C  2  S    0.397271  -0.659333   0.823508  -0.231003   0.043039
   22  C  2  X    0.590548  -0.587064  -0.583213  -0.049008  -0.025847
   23  C  2  Y   -0.009613  -0.039212  -0.395461  -0.052263   0.293210
   24  C  2  Z   -0.265400   0.077488   0.089944   0.973214  -0.143676
   25  C  2 XX   -1.099094  -0.266604   0.089458   0.392007  -0.398417
   26  C  2 YY   -1.100010  -0.166367  -0.050942   0.194608   0.071437
   27  C  2 ZZ   -1.011195  -0.207709   0.038701  -0.070459   0.066387
   28  C  2 XY   -0.033492   0.009052  -0.068356   0.000784  -0.035341
   29  C  2 XZ    0.026028  -0.002537  -0.056448  -0.008162  -0.202828
   30  C  2 YZ    0.004745  -0.009232  -0.035905  -0.004230  -0.011050
   31  C  3  S   -0.088753  -0.127613  -0.027845   0.014212  -0.014837
   32  C  3  S    0.362017   1.710075   0.413592  -0.011171   0.125030
   33  C  3  X   -0.068188   0.069828   0.226987   0.073268  -0.171575
   34  C  3  Y   -0.101017   0.076937  -0.227105  -0.154115   0.006744
   35  C  3  Z    0.210141  -0.206921   0.202330  -0.076960   0.048212
   36  C  3  S    0.451646  -0.987706  -0.283822  -0.090403  -0.010703
   37  C  3  X    0.112362  -0.651680  -1.070713   0.175157  -0.033334
   38  C  3  Y    0.454374  -0.422725   0.974879   0.214599  -0.393978
   39  C  3  Z   -0.737230   0.926952  -0.487394   0.340996   0.085969
   40  C  3 XX   -0.225496  -0.530233  -0.156569  -0.010822   0.665057
   41  C  3 YY   -0.315592  -0.554984  -0.132353   0.045441  -0.189416
   42  C  3 ZZ   -0.296189  -0.565347  -0.009917  -0.004292  -0.360544
   43  C  3 XY    0.014773   0.055543   0.020860  -0.104135   0.007341
   44  C  3 XZ    0.005141  -0.076571  -0.040583  -0.006457  -0.165333
   45  C  3 YZ   -0.041151   0.087383  -0.015184   0.087263   0.153541
   46  C  4  S   -0.088753  -0.127613  -0.027845   0.014212  -0.014837
   47  C  4  S    0.362017   1.710075   0.413592  -0.011171   0.125030
   48  C  4  X   -0.068188   0.069828   0.226987   0.073268  -0.171575
   49  C  4  Y   -0.101017   0.076937  -0.227105  -0.154115   0.006744
   50  C  4  Z   -0.210141   0.206921  -0.202330   0.076960  -0.048212
   51  C  4  S    0.451646  -0.987706  -0.283822  -0.090403  -0.010703
   52  C  4  X    0.112362  -0.651680  -1.070713   0.175157  -0.033334
   53  C  4  Y    0.454374  -0.422725   0.974879   0.214599  -0.393978
   54  C  4  Z    0.737230  -0.926952   0.487394  -0.340996  -0.085969
   55  C  4 XX   -0.225496  -0.530233  -0.156569  -0.010822   0.665057
   56  C  4 YY   -0.315592  -0.554984  -0.132353   0.045441  -0.189416
   57  C  4 ZZ   -0.296189  -0.565347  -0.009917  -0.004292  -0.360544
   58  C  4 XY    0.014773   0.055543   0.020860  -0.104135   0.007341
   59  C  4 XZ   -0.005141   0.076571   0.040583   0.006457   0.165333
   60  C  4 YZ    0.041151  -0.087383   0.015184  -0.087263  -0.153541
   61  H  5  S    0.131062   0.016393   0.121376  -0.420390  -0.002964
   62  H  5  S    0.314045  -0.228612  -1.053037   0.292788   0.027214
   63  H  6  S    0.131062   0.016393   0.121376  -0.420390  -0.002964
   64  H  6  S    0.314045  -0.228612  -1.053037   0.292788   0.027214
   65  H  7  S    0.086923  -0.047322   0.051107   0.374079   0.572832
   66  H  7  S   -0.926657   1.300660  -0.800135  -0.439831  -0.244512
   67  H  8  S    0.086923  -0.047322   0.051107   0.374079   0.572832
   68  H  8  S   -0.926657   1.300660  -0.800135  -0.439831  -0.244512
   69  H  9  S    0.029217   0.052499  -0.061102  -0.244975  -0.400780
   70  H  9  S    0.071276   0.393607   1.390386   0.209821   0.182987
   71  H 10  S    0.029217   0.052499  -0.061102  -0.244975  -0.400780
   72  H 10  S    0.071276   0.393607   1.390386   0.209821   0.182987

                     26         27         28         29         30
                   -7.7541    -7.8668    -6.7917    -6.8289    -7.9369
                     A'         A'         A'         A'         A'  
    1  C  1  S    0.013732   0.051957   0.037168  -0.013807   0.008316
    2  C  1  S   -0.168723   0.151115   0.118277   0.069344   0.025179
    3  C  1  X   -0.452226   0.100987   0.211891   0.232975  -0.136945
    4  C  1  Y    0.177196   0.095553  -0.057751   0.005555  -0.389007
    5  C  1  Z    0.173484  -0.055123   0.156092  -0.257337   0.204661
    6  C  1  S    0.030014  -0.231391  -0.228408  -0.051399   0.009763
    7  C  1  X    0.172655  -0.304438   0.197764  -0.356654  -0.085185
    8  C  1  Y   -0.316110  -0.187946   0.158162   0.025400   0.414090
    9  C  1  Z   -0.217428   0.097082  -0.173389   0.265704  -0.243755
   10  C  1 XX   -0.330306  -0.197934  -0.153463   0.069372  -0.008552
   11  C  1 YY    0.108927   0.364284   0.364173  -0.089374   0.136916
   12  C  1 ZZ    0.026590   0.198872   0.076245   0.096438  -0.056362
   13  C  1 XY   -0.095353  -0.116663  -0.028971   0.067896   0.083350
   14  C  1 XZ    0.103178   0.190223  -0.306363   0.107064   0.142154
   15  C  1 YZ    0.021959   0.050993  -0.070554  -0.026072  -0.009710
   16  C  2  S    0.013732   0.051957   0.037168  -0.013807   0.008316
   17  C  2  S   -0.168723   0.151115   0.118277   0.069344   0.025179
   18  C  2  X   -0.452226   0.100987   0.211891   0.232975  -0.136945
   19  C  2  Y    0.177196   0.095553  -0.057751   0.005555  -0.389007
   20  C  2  Z   -0.173484   0.055123  -0.156092   0.257337  -0.204661
   21  C  2  S    0.030014  -0.231391  -0.228408  -0.051399   0.009763
   22  C  2  X    0.172655  -0.304438   0.197764  -0.356654  -0.085185
   23  C  2  Y   -0.316110  -0.187946   0.158162   0.025400   0.414090
   24  C  2  Z    0.217428  -0.097082   0.173389  -0.265704   0.243755
   25  C  2 XX   -0.330306  -0.197934  -0.153463   0.069372  -0.008552
   26  C  2 YY    0.108927   0.364284   0.364173  -0.089374   0.136916
   27  C  2 ZZ    0.026590   0.198872   0.076245   0.096438  -0.056362
   28  C  2 XY   -0.095353  -0.116663  -0.028971   0.067896   0.083350
   29  C  2 XZ   -0.103178  -0.190223   0.306363  -0.107064  -0.142154
   30  C  2 YZ   -0.021959  -0.050993   0.070554   0.026072   0.009710
   31  C  3  S   -0.009343  -0.001807   0.018024   0.056629  -0.015568
   32  C  3  S    0.044515   0.271968  -0.021798   0.068293   0.085742
   33  C  3  X   -0.355797  -0.494660   0.048003  -0.130131  -0.151976
   34  C  3  Y   -0.141607  -0.196958   0.064205   0.021204   0.335299
   35  C  3  Z   -0.106776   0.274027   0.080194   0.083887   0.277510
   36  C  3  S    0.000766  -0.104187  -0.130597  -0.212405  -0.019329
   37  C  3  X   -0.194999   0.562667   0.010697   0.016355  -0.128738
   38  C  3  Y    0.357497   0.268223  -0.111041  -0.065217  -0.271823
   39  C  3  Z    0.211540  -0.240099  -0.028629  -0.011608  -0.337587
   40  C  3 XX    0.176227   0.137301  -0.139066  -0.156856  -0.088594
   41  C  3 YY   -0.176385   0.075826   0.041307   0.233057  -0.025173
   42  C  3 ZZ    0.038343   0.187185   0.113249   0.165655   0.220274
   43  C  3 XY    0.234345  -0.115964   0.082688   0.170747   0.204184
   44  C  3 XZ   -0.317323  -0.001439  -0.038368   0.038679  -0.084198
   45  C  3 YZ    0.002455  -0.100657   0.095393   0.249836  -0.175139
   46  C  4  S   -0.009343  -0.001807   0.018024   0.056629  -0.015568
   47  C  4  S    0.044515   0.271968  -0.021798   0.068293   0.085742
   48  C  4  X   -0.355797  -0.494660   0.048003  -0.130131  -0.151976
   49  C  4  Y   -0.141607  -0.196958   0.064205   0.021204   0.335299
   50  C  4  Z    0.106776  -0.274027  -0.080194  -0.083887  -0.277510
   51  C  4  S    0.000766  -0.104187  -0.130597  -0.212405  -0.019329
   52  C  4  X   -0.194999   0.562667   0.010697   0.016355  -0.128738
   53  C  4  Y    0.357497   0.268223  -0.111041  -0.065217  -0.271823
   54  C  4  Z   -0.211540   0.240099   0.028629   0.011608   0.337587
   55  C  4 XX    0.176227   0.137301  -0.139066  -0.156856  -0.088594
   56  C  4 YY   -0.176385   0.075826   0.041307   0.233057  -0.025173
   57  C  4 ZZ    0.038343   0.187185   0.113249   0.165655   0.220274
   58  C  4 XY    0.234345  -0.115964   0.082688   0.170747   0.204184
   59  C  4 XZ    0.317323   0.001439   0.038368  -0.038679   0.084198
   60  C  4 YZ   -0.002455   0.100657  -0.095393  -0.249836   0.175139
   61  H  5  S   -0.017170   0.037700   0.817647  -0.318170  -0.230826
   62  H  5  S    0.064720  -0.078164  -0.292983   0.061939   0.016947
   63  H  6  S   -0.017170   0.037700   0.817647  -0.318170  -0.230826
   64  H  6  S    0.064720  -0.078164  -0.292983   0.061939   0.016947
   65  H  7  S   -0.040617  -0.208913   0.275037   0.535932  -0.323560
   66  H  7  S    0.024712   0.021135  -0.209971  -0.292071  -0.039867
   67  H  8  S   -0.040617  -0.208913   0.275037   0.535932  -0.323560
   68  H  8  S    0.024712   0.021135  -0.209971  -0.292071  -0.039867
   69  H  9  S    0.643209  -0.249620   0.188321   0.498615   0.217957
   70  H  9  S   -0.281262   0.061915  -0.063865  -0.168137   0.103092
   71  H 10  S    0.643209  -0.249620   0.188321   0.498615   0.217957
   72  H 10  S   -0.281262   0.061915  -0.063865  -0.168137   0.103092

                     31         32         33         34         35
                   -8.1614    -7.9624    -8.3022    -8.0677    -8.3655
                     A'         A'         A'         A'         A'  
    1  C  1  S   -0.003183  -0.001944  -0.010839   0.001420  -0.004955
    2  C  1  S    0.097579  -0.109315  -0.055108  -0.075326   0.119618
    3  C  1  X   -0.072961   0.119419   0.285621   0.154826  -0.341393
    4  C  1  Y    0.423387   0.324005  -0.090737   0.123167   0.018163
    5  C  1  Z    0.144972  -0.028802   0.093527   0.077862  -0.046633
    6  C  1  S   -0.037155   0.069730   0.064101   0.062748  -0.060164
    7  C  1  X    0.063952  -0.047674  -0.105525  -0.046429   0.120375
    8  C  1  Y   -0.343232  -0.220731   0.067778  -0.011894   0.014273
    9  C  1  Z   -0.044384  -0.076419  -0.091021  -0.052716  -0.026087
   10  C  1 XX    0.231477  -0.343975  -0.223706  -0.208957   0.013516
   11  C  1 YY    0.078195  -0.048179  -0.003197   0.144338  -0.133013
   12  C  1 ZZ   -0.111097   0.175488   0.124704  -0.084244   0.368967
   13  C  1 XY   -0.027084  -0.030577  -0.019303   0.295172   0.116910
   14  C  1 XZ    0.101999  -0.138899  -0.109743   0.041807  -0.071179
   15  C  1 YZ    0.014927  -0.028931  -0.002605  -0.102758  -0.056107
   16  C  2  S   -0.003183  -0.001944  -0.010839   0.001420  -0.004955
   17  C  2  S    0.097579  -0.109315  -0.055108  -0.075326   0.119618
   18  C  2  X   -0.072961   0.119419   0.285621   0.154826  -0.341393
   19  C  2  Y    0.423387   0.324005  -0.090737   0.123167   0.018163
   20  C  2  Z   -0.144972   0.028802  -0.093527  -0.077862   0.046633
   21  C  2  S   -0.037155   0.069730   0.064101   0.062748  -0.060164
   22  C  2  X    0.063952  -0.047674  -0.105525  -0.046429   0.120375
   23  C  2  Y   -0.343232  -0.220731   0.067778  -0.011894   0.014273
   24  C  2  Z    0.044384   0.076419   0.091021   0.052716   0.026087
   25  C  2 XX    0.231477  -0.343975  -0.223706  -0.208957   0.013516
   26  C  2 YY    0.078195  -0.048179  -0.003197   0.144338  -0.133013
   27  C  2 ZZ   -0.111097   0.175488   0.124704  -0.084244   0.368967
   28  C  2 XY   -0.027084  -0.030577  -0.019303   0.295172   0.116910
   29  C  2 XZ   -0.101999   0.138899   0.109743  -0.041807   0.071179
   30  C  2 YZ   -0.014927   0.028931   0.002605   0.102758   0.056107
   31  C  3  S    0.006847  -0.006430   0.008627  -0.001894  -0.002078
   32  C  3  S    0.003551   0.028151  -0.021635  -0.047009  -0.054523
   33  C  3  X    0.127583   0.027757   0.329098  -0.012594   0.006335
   34  C  3  Y    0.233430   0.369966  -0.305440  -0.107791  -0.117705
   35  C  3  Z    0.330402  -0.029003   0.273500   0.036987   0.052492
   36  C  3  S   -0.044989   0.031544   0.011863   0.045801   0.025950
   37  C  3  X   -0.066035  -0.004054  -0.098407  -0.012872   0.050907
   38  C  3  Y   -0.232472  -0.241088   0.099559   0.006318  -0.041883
   39  C  3  Z   -0.343697   0.099195  -0.158611  -0.025157  -0.098744
   40  C  3 XX    0.208637  -0.159675   0.066154  -0.094742  -0.265689
   41  C  3 YY   -0.043511  -0.045512  -0.206351   0.414107   0.183449
   42  C  3 ZZ   -0.157150   0.251140   0.094834  -0.413871  -0.034605
   43  C  3 XY    0.000690  -0.024738  -0.072392   0.315982  -0.003216
   44  C  3 XZ    0.113462  -0.196667  -0.131447   0.024491  -0.294377
   45  C  3 YZ    0.149633  -0.082937   0.081868  -0.127709   0.050234
   46  C  4  S    0.006847  -0.006430   0.008627  -0.001894  -0.002078
   47  C  4  S    0.003551   0.028151  -0.021635  -0.047009  -0.054523
   48  C  4  X    0.127583   0.027757   0.329098  -0.012594   0.006335
   49  C  4  Y    0.233430   0.369966  -0.305440  -0.107791  -0.117705
   50  C  4  Z   -0.330402   0.029003  -0.273500  -0.036987  -0.052492
   51  C  4  S   -0.044989   0.031544   0.011863   0.045801   0.025950
   52  C  4  X   -0.066035  -0.004054  -0.098407  -0.012872   0.050907
   53  C  4  Y   -0.232472  -0.241088   0.099559   0.006318  -0.041883
   54  C  4  Z    0.343697  -0.099195   0.158611   0.025157   0.098744
   55  C  4 XX    0.208637  -0.159675   0.066154  -0.094742  -0.265689
   56  C  4 YY   -0.043511  -0.045512  -0.206351   0.414107   0.183449
   57  C  4 ZZ   -0.157150   0.251140   0.094834  -0.413871  -0.034605
   58  C  4 XY    0.000690  -0.024738  -0.072392   0.315982  -0.003216
   59  C  4 XZ   -0.113462   0.196667   0.131447  -0.024491   0.294377
   60  C  4 YZ   -0.149633   0.082937  -0.081868   0.127709  -0.050234
   61  H  5  S   -0.039295  -0.047586  -0.087725   0.011499  -0.095091
   62  H  5  S   -0.127629   0.246355   0.212216   0.155084  -0.223875
   63  H  6  S   -0.039295  -0.047586  -0.087725   0.011499  -0.095091
   64  H  6  S   -0.127629   0.246355   0.212216   0.155084  -0.223875
   65  H  7  S    0.077886  -0.030699   0.039353  -0.023894   0.069610
   66  H  7  S    0.104402  -0.158203   0.199121   0.078847   0.091321
   67  H  8  S    0.077886  -0.030699   0.039353  -0.023894   0.069610
   68  H  8  S    0.104402  -0.158203   0.199121   0.078847   0.091321
   69  H  9  S    0.048300  -0.143149  -0.002632  -0.021729  -0.099074
   70  H  9  S   -0.099487   0.137780  -0.170636   0.075480   0.067860
   71  H 10  S    0.048300  -0.143149  -0.002632  -0.021729  -0.099074
   72  H 10  S   -0.099487   0.137780  -0.170636   0.075480   0.067860

                     36         37         38         39         40
                   -8.3012    -7.7170    -8.7099    -8.8844    -8.5801
                     A'         A'         A'         A'         A'  
    1  C  1  S   -0.010622   0.003414  -0.025797   0.038395   0.015695
    2  C  1  S    0.064851   0.007490   0.015621  -0.118045  -0.048025
    3  C  1  X   -0.173081  -0.027520  -0.093358  -0.111080   0.020582
    4  C  1  Y    0.101710  -0.066782  -0.040420   0.023891   0.034376
    5  C  1  Z   -0.069602   0.009916  -0.064907   0.045986  -0.009078
    6  C  1  S   -0.014642  -0.044556   0.092609  -0.000056  -0.013070
    7  C  1  X    0.023383  -0.015976   0.021385  -0.035779  -0.041151
    8  C  1  Y   -0.011590   0.004292  -0.008361  -0.000515  -0.030847
    9  C  1  Z    0.097656  -0.036429   0.117621  -0.068843   0.006301
   10  C  1 XX   -0.037387  -0.041136  -0.111531  -0.012692   0.111804
   11  C  1 YY    0.227547  -0.079305   0.443046  -0.117048  -0.044119
   12  C  1 ZZ   -0.070205   0.142087  -0.311116  -0.130692  -0.175937
   13  C  1 XY    0.309157  -0.162346  -0.166856  -0.035627   0.145195
   14  C  1 XZ    0.055298   0.049690  -0.071815   0.036810  -0.037926
   15  C  1 YZ   -0.094621   0.077778   0.067036  -0.102224   0.100583
   16  C  2  S   -0.010622   0.003414  -0.025797   0.038395   0.015695
   17  C  2  S    0.064851   0.007490   0.015621  -0.118045  -0.048025
   18  C  2  X   -0.173081  -0.027520  -0.093358  -0.111080   0.020582
   19  C  2  Y    0.101710  -0.066782  -0.040420   0.023891   0.034376
   20  C  2  Z    0.069602  -0.009916   0.064907  -0.045986   0.009078
   21  C  2  S   -0.014642  -0.044556   0.092609  -0.000056  -0.013070
   22  C  2  X    0.023383  -0.015976   0.021385  -0.035779  -0.041151
   23  C  2  Y   -0.011590   0.004292  -0.008361  -0.000515  -0.030847
   24  C  2  Z   -0.097656   0.036429  -0.117621   0.068843  -0.006301
   25  C  2 XX   -0.037387  -0.041136  -0.111531  -0.012692   0.111804
   26  C  2 YY    0.227547  -0.079305   0.443046  -0.117048  -0.044119
   27  C  2 ZZ   -0.070205   0.142087  -0.311116  -0.130692  -0.175937
   28  C  2 XY    0.309157  -0.162346  -0.166856  -0.035627   0.145195
   29  C  2 XZ   -0.055298  -0.049690   0.071815  -0.036810   0.037926
   30  C  2 YZ    0.094621  -0.077778  -0.067036   0.102224  -0.100583
   31  C  3  S   -0.011260  -0.018947   0.004531  -0.046694   0.002189
   32  C  3  S    0.145306   0.232219  -0.036000   0.152356  -0.003334
   33  C  3  X    0.302647   0.242150   0.062294  -0.084017  -0.128605
   34  C  3  Y   -0.144665   0.091503   0.014388  -0.135311  -0.093395
   35  C  3  Z   -0.096470   0.038026  -0.038987  -0.081519  -0.019275
   36  C  3  S   -0.046019  -0.082732   0.030821   0.040357  -0.030360
   37  C  3  X   -0.030523  -0.116637  -0.048761  -0.105731  -0.047606
   38  C  3  Y   -0.027867   0.035069  -0.012576  -0.083826  -0.088002
   39  C  3  Z    0.035954   0.036433   0.002778  -0.087110  -0.081474
   40  C  3 XX    0.084644   0.170635  -0.186038  -0.073474  -0.022851
   41  C  3 YY   -0.098444   0.412419   0.123732   0.184801  -0.013907
   42  C  3 ZZ    0.302391  -0.119054  -0.015255   0.215118   0.036038
   43  C  3 XY    0.224144  -0.224931  -0.214417  -0.024348  -0.250439
   44  C  3 XZ    0.106144  -0.085705  -0.131824   0.096348  -0.181103
   45  C  3 YZ   -0.214649  -0.170733   0.152069   0.269982  -0.377767
   46  C  4  S   -0.011260  -0.018947   0.004531  -0.046694   0.002189
   47  C  4  S    0.145306   0.232219  -0.036000   0.152356  -0.003334
   48  C  4  X    0.302647   0.242150   0.062294  -0.084017  -0.128605
   49  C  4  Y   -0.144665   0.091503   0.014388  -0.135311  -0.093395
   50  C  4  Z    0.096470  -0.038026   0.038987   0.081519   0.019275
   51  C  4  S   -0.046019  -0.082732   0.030821   0.040357  -0.030360
   52  C  4  X   -0.030523  -0.116637  -0.048761  -0.105731  -0.047606
   53  C  4  Y   -0.027867   0.035069  -0.012576  -0.083826  -0.088002
   54  C  4  Z   -0.035954  -0.036433  -0.002778   0.087110   0.081474
   55  C  4 XX    0.084644   0.170635  -0.186038  -0.073474  -0.022851
   56  C  4 YY   -0.098444   0.412419   0.123732   0.184801  -0.013907
   57  C  4 ZZ    0.302391  -0.119054  -0.015255   0.215118   0.036038
   58  C  4 XY    0.224144  -0.224931  -0.214417  -0.024348  -0.250439
   59  C  4 XZ   -0.106144   0.085705   0.131824  -0.096348   0.181103
   60  C  4 YZ    0.214649   0.170733  -0.152069  -0.269982   0.377767
   61  H  5  S   -0.083338   0.016699  -0.168261   0.098807   0.066569
   62  H  5  S   -0.120454  -0.025868  -0.016262   0.079202   0.036343
   63  H  6  S   -0.083338   0.016699  -0.168261   0.098807   0.066569
   64  H  6  S   -0.120454  -0.025868  -0.016262   0.079202   0.036343
   65  H  7  S    0.018188  -0.137800   0.023340  -0.037047   0.177868
   66  H  7  S   -0.131459  -0.198715   0.037814   0.002219   0.025391
   67  H  8  S    0.018188  -0.137800   0.023340  -0.037047   0.177868
   68  H  8  S   -0.131459  -0.198715   0.037814   0.002219   0.025391
   69  H  9  S   -0.148504   0.021918  -0.012974  -0.141109   0.048925
   70  H  9  S   -0.177913  -0.280807   0.007164  -0.085677  -0.016673
   71  H 10  S   -0.148504   0.021918  -0.012974  -0.141109   0.048925
   72  H 10  S   -0.177913  -0.280807   0.007164  -0.085677  -0.016673

                     41         42         43         44         45
                   -8.8267    -9.1003    -9.4577    -9.1030    -5.8501
                     A'         A'         A'         A'         A'' 
    1  C  1  S   -0.005489   0.005716   0.002421   0.001184  -0.192814
    2  C  1  S    0.007091  -0.008715  -0.000050  -0.002040  -0.816705
    3  C  1  X   -0.078505  -0.045721  -0.066218  -0.002299  -0.268074
    4  C  1  Y   -0.003852  -0.040114   0.005972   0.031338  -0.036464
    5  C  1  Z    0.053820   0.003355  -0.017938   0.018716   0.033852
    6  C  1  S    0.024215  -0.007526  -0.003671   0.006643   8.288746
    7  C  1  X    0.045288  -0.015901  -0.077296   0.010570   5.975207
    8  C  1  Y   -0.000698  -0.043445   0.014683   0.021041   0.848931
    9  C  1  Z   -0.053470  -0.011784   0.029926  -0.003930   1.893845
   10  C  1 XX   -0.202115  -0.051347   0.052185   0.013129  -0.109717
   11  C  1 YY    0.048852  -0.000010  -0.010742  -0.022071  -0.510254
   12  C  1 ZZ    0.169828   0.031924  -0.042401   0.003432  -0.132294
   13  C  1 XY   -0.036841   0.283755  -0.214532  -0.307642   0.071765
   14  C  1 XZ    0.057344  -0.264625  -0.434871   0.094751  -0.025123
   15  C  1 YZ   -0.005931   0.450602  -0.187173   0.346761  -0.010998
   16  C  2  S   -0.005489   0.005716   0.002421   0.001184   0.192814
   17  C  2  S    0.007091  -0.008715  -0.000050  -0.002040   0.816705
   18  C  2  X   -0.078505  -0.045721  -0.066218  -0.002299   0.268074
   19  C  2  Y   -0.003852  -0.040114   0.005972   0.031338   0.036464
   20  C  2  Z   -0.053820  -0.003355   0.017938  -0.018716   0.033852
   21  C  2  S    0.024215  -0.007526  -0.003671   0.006643  -8.288746
   22  C  2  X    0.045288  -0.015901  -0.077296   0.010570  -5.975207
   23  C  2  Y   -0.000698  -0.043445   0.014683   0.021041  -0.848931
   24  C  2  Z    0.053470   0.011784  -0.029926   0.003930   1.893845
   25  C  2 XX   -0.202115  -0.051347   0.052185   0.013129   0.109717
   26  C  2 YY    0.048852  -0.000010  -0.010742  -0.022071   0.510254
   27  C  2 ZZ    0.169828   0.031924  -0.042401   0.003432   0.132294
   28  C  2 XY   -0.036841   0.283755  -0.214532  -0.307642  -0.071765
   29  C  2 XZ   -0.057344   0.264625   0.434871  -0.094751  -0.025123
   30  C  2 YZ    0.005931  -0.450602   0.187173  -0.346761  -0.010998
   31  C  3  S    0.010761  -0.011849  -0.009945   0.000598   0.117585
   32  C  3  S   -0.054137   0.038371   0.038084  -0.011818   0.501431
   33  C  3  X   -0.047493  -0.052608  -0.064997   0.062454   0.221328
   34  C  3  Y   -0.021082   0.030562  -0.014501  -0.065458   0.040208
   35  C  3  Z   -0.026659   0.021908   0.029709  -0.043202   0.010977
   36  C  3  S    0.008906   0.003544  -0.011924   0.016211  -6.480034
   37  C  3  X   -0.090505  -0.006685   0.014740   0.010591   2.497766
   38  C  3  Y   -0.040016   0.006809   0.004136  -0.042631   0.397745
   39  C  3  Z   -0.010274   0.008720  -0.017746  -0.036206  -1.960059
   40  C  3 XX   -0.109421   0.064627   0.105105  -0.099210  -0.000281
   41  C  3 YY   -0.003670   0.023451   0.024882   0.031159   0.276108
   42  C  3 ZZ   -0.008104  -0.000820  -0.040018   0.041044   0.177570
   43  C  3 XY   -0.212189  -0.015762   0.131242   0.282180   0.014932
   44  C  3 XZ    0.460170   0.110890   0.066418   0.015147   0.215691
   45  C  3 YZ   -0.145108   0.126380  -0.153828  -0.123095   0.076221
   46  C  4  S    0.010761  -0.011849  -0.009945   0.000598  -0.117585
   47  C  4  S   -0.054137   0.038371   0.038084  -0.011818  -0.501431
   48  C  4  X   -0.047493  -0.052608  -0.064997   0.062454  -0.221328
   49  C  4  Y   -0.021082   0.030562  -0.014501  -0.065458  -0.040208
   50  C  4  Z    0.026659  -0.021908  -0.029709   0.043202   0.010977
   51  C  4  S    0.008906   0.003544  -0.011924   0.016211   6.480034
   52  C  4  X   -0.090505  -0.006685   0.014740   0.010591  -2.497766
   53  C  4  Y   -0.040016   0.006809   0.004136  -0.042631  -0.397745
   54  C  4  Z    0.010274  -0.008720   0.017746   0.036206  -1.960059
   55  C  4 XX   -0.109421   0.064627   0.105105  -0.099210   0.000281
   56  C  4 YY   -0.003670   0.023451   0.024882   0.031159  -0.276108
   57  C  4 ZZ   -0.008104  -0.000820  -0.040018   0.041044  -0.177570
   58  C  4 XY   -0.212189  -0.015762   0.131242   0.282180  -0.014932
   59  C  4 XZ   -0.460170  -0.110890  -0.066418  -0.015147   0.215691
   60  C  4 YZ    0.145108  -0.126380   0.153828   0.123095   0.076221
   61  H  5  S   -0.066351  -0.035711  -0.107897   0.021945   0.233713
   62  H  5  S   -0.019863  -0.005505  -0.010041   0.006393   1.810347
   63  H  6  S   -0.066351  -0.035711  -0.107897   0.021945  -0.233713
   64  H  6  S   -0.019863  -0.005505  -0.010041   0.006393  -1.810347
   65  H  7  S    0.101314  -0.056081   0.016705   0.095333   0.116019
   66  H  7  S    0.038453  -0.031460  -0.006486   0.042877  -0.049861
   67  H  8  S    0.101314  -0.056081   0.016705   0.095333  -0.116019
   68  H  8  S    0.038453  -0.031460  -0.006486   0.042877   0.049861
   69  H  9  S    0.075820   0.006947  -0.000631  -0.080208   0.247367
   70  H  9  S    0.014011  -0.006737  -0.004593  -0.000787  -0.104154
   71  H 10  S    0.075820   0.006947  -0.000631  -0.080208  -0.247367
   72  H 10  S    0.014011  -0.006737  -0.004593  -0.000787   0.104154

                     46         47         48         49         50
                   -5.8425    -5.7844    -5.2362    -7.5516    -6.6353
                     A''        A''        A''        A''        A'' 
    1  C  1  S   -0.128733   0.077939   0.041275  -0.276012   0.021526
    2  C  1  S   -0.410303  -0.002148  -0.348326   2.346421  -0.186136
    3  C  1  X    0.232084  -0.216736  -0.208403  -0.143897  -0.196962
    4  C  1  Y    0.046154   0.045120  -0.086337  -0.022417  -0.047195
    5  C  1  Z   -0.070035  -0.095726  -0.077947  -0.141299  -0.051076
    6  C  1  S    3.888364  -1.452339  -0.142748   0.064281  -0.158950
    7  C  1  X   -2.867048   1.127446   1.703047   0.351683   0.164888
    8  C  1  Y   -0.595479  -0.478227   0.595158   0.021826   0.313698
    9  C  1  Z    3.147412   1.805515   0.862793  -0.128740   1.173656
   10  C  1 XX   -0.373079   0.188976   0.247321  -1.233682  -0.096780
   11  C  1 YY   -0.437484   0.247790   0.147681  -1.039545   0.078537
   12  C  1 ZZ    0.019285   0.291922   0.292235  -1.412735   0.295141
   13  C  1 XY   -0.017147  -0.100231   0.051538  -0.043079   0.019138
   14  C  1 XZ    0.092370   0.099709  -0.012412   0.044202   0.080002
   15  C  1 YZ    0.011425   0.002248   0.002459   0.005915   0.026348
   16  C  2  S    0.128733  -0.077939  -0.041275   0.276012  -0.021526
   17  C  2  S    0.410303   0.002148   0.348326  -2.346421   0.186136
   18  C  2  X   -0.232084   0.216736   0.208403   0.143897   0.196962
   19  C  2  Y   -0.046154  -0.045120   0.086337   0.022417   0.047195
   20  C  2  Z   -0.070035  -0.095726  -0.077947  -0.141299  -0.051076
   21  C  2  S   -3.888364   1.452339   0.142748  -0.064281   0.158950
   22  C  2  X    2.867048  -1.127446  -1.703047  -0.351683  -0.164888
   23  C  2  Y    0.595479   0.478227  -0.595158  -0.021826  -0.313698
   24  C  2  Z    3.147412   1.805515   0.862793  -0.128740   1.173656
   25  C  2 XX    0.373079  -0.188976  -0.247321   1.233682   0.096780
   26  C  2 YY    0.437484  -0.247790  -0.147681   1.039545  -0.078537
   27  C  2 ZZ   -0.019285  -0.291922  -0.292235   1.412735  -0.295141
   28  C  2 XY    0.017147   0.100231  -0.051538   0.043079  -0.019138
   29  C  2 XZ    0.092370   0.099709  -0.012412   0.044202   0.080002
   30  C  2 YZ    0.011425   0.002248   0.002459   0.005915   0.026348
   31  C  3  S   -0.052103   0.007717  -0.204904   0.064869   0.168758
   32  C  3  S   -0.219658  -0.046162  -0.022401  -0.859389  -1.621738
   33  C  3  X    0.013992   0.308141  -0.045098  -0.118198   0.000955
   34  C  3  Y   -0.072862  -0.212127   0.066231  -0.062507   0.193119
   35  C  3  Z    0.136332   0.218423  -0.057894   0.148566  -0.326824
   36  C  3  S    2.505019  -0.239899   2.553141   0.355770  -0.106239
   37  C  3  X   -1.453681  -2.126470   0.973548   0.106939  -0.376863
   38  C  3  Y    0.353091   1.340652  -0.363262   0.200697  -0.945732
   39  C  3  Z   -0.562158  -1.424351  -0.178967  -0.311783   1.229429
   40  C  3 XX    0.021118   0.073122  -0.595788   0.459956   0.917190
   41  C  3 YY   -0.150563   0.031379  -0.662931   0.274926   0.613303
   42  C  3 ZZ   -0.110021   0.030145  -0.597245   0.315110   0.706560
   43  C  3 XY    0.054814   0.088525  -0.026539   0.017838   0.028665
   44  C  3 XZ   -0.016820  -0.014447   0.065450  -0.079109  -0.040635
   45  C  3 YZ   -0.058350  -0.050568  -0.043677  -0.041975   0.012052
   46  C  4  S    0.052103  -0.007717   0.204904  -0.064869  -0.168758
   47  C  4  S    0.219658   0.046162   0.022401   0.859389   1.621738
   48  C  4  X   -0.013992  -0.308141   0.045098   0.118198  -0.000955
   49  C  4  Y    0.072862   0.212127  -0.066231   0.062507  -0.193119
   50  C  4  Z    0.136332   0.218423  -0.057894   0.148566  -0.326824
   51  C  4  S   -2.505019   0.239899  -2.553141  -0.355770   0.106239
   52  C  4  X    1.453681   2.126470  -0.973548  -0.106939   0.376863
   53  C  4  Y   -0.353091  -1.340652   0.363262  -0.200697   0.945732
   54  C  4  Z   -0.562158  -1.424351  -0.178967  -0.311783   1.229429
   55  C  4 XX   -0.021118  -0.073122   0.595788  -0.459956  -0.917190
   56  C  4 YY    0.150563  -0.031379   0.662931  -0.274926  -0.613303
   57  C  4 ZZ    0.110021  -0.030145   0.597245  -0.315110  -0.706560
   58  C  4 XY   -0.054814  -0.088525   0.026539  -0.017838  -0.028665
   59  C  4 XZ   -0.016820  -0.014447   0.065450  -0.079109  -0.040635
   60  C  4 YZ   -0.058350  -0.050568  -0.043677  -0.041975   0.012052
   61  H  5  S   -0.289250   0.061968   0.042909   0.142445  -0.057788
   62  H  5  S   -1.242494   1.632356   1.449608   0.092557   0.768822
   63  H  6  S    0.289250  -0.061968  -0.042909  -0.142445   0.057788
   64  H  6  S    1.242494  -1.632356  -1.449608  -0.092557  -0.768822
   65  H  7  S   -0.142878  -0.185903   0.053302  -0.002280  -0.125110
   66  H  7  S   -0.616672  -1.057710  -0.736268  -0.466690   1.415396
   67  H  8  S    0.142878   0.185903  -0.053302   0.002280   0.125110
   68  H  8  S    0.616672   1.057710   0.736268   0.466690  -1.415396
   69  H  9  S    0.080388   0.113659   0.127652   0.005574  -0.165107
   70  H  9  S    0.329216   1.975963  -1.885442  -0.179240  -0.075294
   71  H 10  S   -0.080388  -0.113659  -0.127652  -0.005574   0.165107
   72  H 10  S   -0.329216  -1.975963   1.885442   0.179240   0.075294

                     51         52         53         54         55
                   -7.0751    -6.5890    -6.6536    -6.2011    -8.3064
                     A''        A''        A''        A''        A'' 
    1  C  1  S    0.110243  -0.045445  -0.000259   0.015367   0.010825
    2  C  1  S   -0.853078  -0.335067  -0.048268  -0.037050   0.101151
    3  C  1  X    0.025878  -0.234934   0.025883  -0.122342  -0.218931
    4  C  1  Y   -0.012957   0.050816  -0.519716  -0.043921   0.104305
    5  C  1  Z    0.167494   0.126576   0.069671   0.313782   0.505928
    6  C  1  S    0.085918   0.367969   0.017465  -0.068665  -0.033848
    7  C  1  X   -0.029946   0.683412  -0.124710   0.367002  -0.112584
    8  C  1  Y   -0.148587  -0.267015   1.230630   0.190823  -0.194389
    9  C  1  Z   -0.766796  -0.526389  -0.049560   0.032510   0.078489
   10  C  1 XX    0.424874  -0.034259  -0.045852  -0.413625  -0.594630
   11  C  1 YY    0.422348  -0.203342   0.021689   0.110024  -0.011277
   12  C  1 ZZ    0.382071  -0.178568  -0.026733   0.306566   0.719328
   13  C  1 XY   -0.029724  -0.026611   0.078820  -0.043533  -0.118224
   14  C  1 XZ    0.009949  -0.063150   0.024710  -0.140351   0.207514
   15  C  1 YZ   -0.003510  -0.029141   0.129252  -0.016228   0.008057
   16  C  2  S   -0.110243   0.045445   0.000259  -0.015367  -0.010825
   17  C  2  S    0.853078   0.335067   0.048268   0.037050  -0.101151
   18  C  2  X   -0.025878   0.234934  -0.025883   0.122342   0.218931
   19  C  2  Y    0.012957  -0.050816   0.519716   0.043921  -0.104305
   20  C  2  Z    0.167494   0.126576   0.069671   0.313782   0.505928
   21  C  2  S   -0.085918  -0.367969  -0.017465   0.068665   0.033848
   22  C  2  X    0.029946  -0.683412   0.124710  -0.367002   0.112584
   23  C  2  Y    0.148587   0.267015  -1.230630  -0.190823   0.194389
   24  C  2  Z   -0.766796  -0.526389  -0.049560   0.032510   0.078489
   25  C  2 XX   -0.424874   0.034259   0.045852   0.413625   0.594630
   26  C  2 YY   -0.422348   0.203342  -0.021689  -0.110024   0.011277
   27  C  2 ZZ   -0.382071   0.178568   0.026733  -0.306566  -0.719328
   28  C  2 XY    0.029724   0.026611  -0.078820   0.043533   0.118224
   29  C  2 XZ    0.009949  -0.063150   0.024710  -0.140351   0.207514
   30  C  2 YZ   -0.003510  -0.029141   0.129252  -0.016228   0.008057
   31  C  3  S    0.212962  -0.072348  -0.008299  -0.013966  -0.004394
   32  C  3  S   -1.740344  -0.357533   0.001214  -0.006896   0.199794
   33  C  3  X   -0.078708   0.202248   0.071678   0.065862  -0.423657
   34  C  3  Y   -0.133226  -0.158650   0.106082   0.136743  -0.164612
   35  C  3  Z    0.234552  -0.375933   0.106287   0.119417   0.098497
   36  C  3  S    0.241498   0.466505   0.013314   0.019475  -0.030510
   37  C  3  X    0.516565  -0.284462  -0.069485  -0.458030   0.338746
   38  C  3  Y    0.596710   0.387681  -0.530198  -0.151420   0.094434
   39  C  3  Z   -0.959746   0.986224  -0.125441  -0.208022   0.111662
   40  C  3 XX    0.737766  -0.063196   0.153024  -0.017552   0.435962
   41  C  3 YY    0.875317  -0.384663  -0.035601  -0.088597  -0.104612
   42  C  3 ZZ    0.798812  -0.149016  -0.150985   0.043078  -0.123181
   43  C  3 XY   -0.050046  -0.071153   0.042251   0.167381  -0.039605
   44  C  3 XZ    0.022245  -0.087247   0.016891  -0.199230  -0.174319
   45  C  3 YZ   -0.060214   0.055029   0.034890  -0.067744   0.056503
   46  C  4  S   -0.212962   0.072348   0.008299   0.013966   0.004394
   47  C  4  S    1.740344   0.357533  -0.001214   0.006896  -0.199794
   48  C  4  X    0.078708  -0.202248  -0.071678  -0.065862   0.423657
   49  C  4  Y    0.133226   0.158650  -0.106082  -0.136743   0.164612
   50  C  4  Z    0.234552  -0.375933   0.106287   0.119417   0.098497
   51  C  4  S   -0.241498  -0.466505  -0.013314  -0.019475   0.030510
   52  C  4  X   -0.516565   0.284462   0.069485   0.458030  -0.338746
   53  C  4  Y   -0.596710  -0.387681   0.530198   0.151420  -0.094434
   54  C  4  Z   -0.959746   0.986224  -0.125441  -0.208022   0.111662
   55  C  4 XX   -0.737766   0.063196  -0.153024   0.017552  -0.435962
   56  C  4 YY   -0.875317   0.384663   0.035601   0.088597   0.104612
   57  C  4 ZZ   -0.798812   0.149016   0.150985  -0.043078   0.123181
   58  C  4 XY    0.050046   0.071153  -0.042251  -0.167381   0.039605
   59  C  4 XZ    0.022245  -0.087247   0.016891  -0.199230  -0.174319
   60  C  4 YZ   -0.060214   0.055029   0.034890  -0.067744   0.056503
   61  H  5  S    0.003371   0.218282   0.032408   0.825528  -0.059665
   62  H  5  S   -0.424538  -0.277764  -0.052215  -0.656082   0.157864
   63  H  6  S   -0.003371  -0.218282  -0.032408  -0.825528   0.059665
   64  H  6  S    0.424538   0.277764   0.052215   0.656082  -0.157864
   65  H  7  S   -0.013623   0.239839   0.405637  -0.207718   0.262132
   66  H  7  S   -1.088742  -0.218392  -0.455884   0.165669  -0.153202
   67  H  8  S    0.013623  -0.239839  -0.405637   0.207718  -0.262132
   68  H  8  S    1.088742   0.218392   0.455884  -0.165669   0.153202
   69  H  9  S    0.018446  -0.352900  -0.419675   0.408509  -0.227554
   70  H  9  S   -0.277450   0.684353   0.500146  -0.249551   0.092359
   71  H 10  S   -0.018446   0.352900   0.419675  -0.408509   0.227554
   72  H 10  S    0.277450  -0.684353  -0.500146   0.249551  -0.092359

                     56         57         58         59         60
                   -7.3904    -7.3360    -7.3998    -7.8494    -7.8705
                     A''        A''        A''        A''        A'' 
    1  C  1  S   -0.012757  -0.051375   0.009273   0.031926  -0.002195
    2  C  1  S    0.295027   0.105463  -0.144369  -0.032763   0.076834
    3  C  1  X    0.381132   0.042341  -0.297214   0.154040   0.115141
    4  C  1  Y    0.020638  -0.158442  -0.293761  -0.162102  -0.154776
    5  C  1  Z    0.103637   0.358089   0.071895  -0.363379   0.079739
    6  C  1  S   -0.030987   0.083926   0.063621  -0.057226  -0.043437
[...]
    1  C  1  S    0.060848  -0.126565   0.019620  -0.247005  -0.266784
    2  C  1  S   -0.088577   0.196477   0.102315   1.594885   1.749603
    3  C  1  X   -0.304902   0.011535  -0.213470  -0.040890   0.020450
    4  C  1  Y   -0.055365   0.011944  -0.039139  -0.030552   0.003535
    5  C  1  Z    0.126595   0.301401   0.344296  -0.182498   0.025143
    6  C  1  S   -1.184095   2.443988  -1.019455   0.823504   0.604177
    7  C  1  X   -0.755069   0.776615  -1.273033   0.091109   0.023739
    8  C  1  Y   -0.111260   0.103652  -0.191471   0.038472   0.010649
    9  C  1  Z    0.206895   0.975251   0.607802   0.259467  -0.004751
   10  C  1 XX   -0.550905  -0.333603  -0.701757  -0.627748  -1.031555
   11  C  1 YY    0.365213  -0.777758   0.098816  -1.058814  -1.038918
   12  C  1 ZZ    0.220040   0.601584   0.623830  -1.248214  -0.937025
   13  C  1 XY   -0.192948   0.161678  -0.169977   0.075758   0.005460
   14  C  1 XZ    0.293371  -0.283803   0.461303   0.328168  -0.038987
   15  C  1 YZ    0.055353  -0.036539   0.093403   0.091277  -0.014625
   16  C  2  S    0.060848   0.126565  -0.019620   0.247005  -0.266784
   17  C  2  S   -0.088577  -0.196477  -0.102315  -1.594885   1.749603
   18  C  2  X   -0.304902  -0.011535   0.213470   0.040890   0.020450
   19  C  2  Y   -0.055365  -0.011944   0.039139   0.030552   0.003535
   20  C  2  Z   -0.126595   0.301401   0.344296  -0.182498  -0.025143
   21  C  2  S   -1.184095  -2.443988   1.019455  -0.823504   0.604177
   22  C  2  X   -0.755069  -0.776615   1.273033  -0.091109   0.023739
   23  C  2  Y   -0.111260  -0.103652   0.191471  -0.038472   0.010649
   24  C  2  Z   -0.206895   0.975251   0.607802   0.259467   0.004751
   25  C  2 XX   -0.550905   0.333603   0.701757   0.627748  -1.031555
   26  C  2 YY    0.365213   0.777758  -0.098816   1.058814  -1.038918
   27  C  2 ZZ    0.220040  -0.601584  -0.623830   1.248214  -0.937025
   28  C  2 XY   -0.192948  -0.161678   0.169977  -0.075758   0.005460
   29  C  2 XZ   -0.293371  -0.283803   0.461303   0.328168   0.038987
   30  C  2 YZ   -0.055353  -0.036539   0.093403   0.091277   0.014625
   31  C  3  S   -0.055443   0.000035  -0.062159  -0.161009  -0.194086
   32  C  3  S    0.020948  -0.024650   0.031786   0.640755   1.342405
   33  C  3  X   -0.293453   0.133702  -0.327429  -0.007344  -0.071628
   34  C  3  Y   -0.066411   0.041893  -0.064376  -0.013733  -0.008405
   35  C  3  Z    0.136425  -0.055637   0.124688  -0.068787   0.024781
   36  C  3  S    1.310177  -0.626397   1.679668   0.913525   0.417267
   37  C  3  X   -0.735024   0.269241  -0.858188   0.015596   0.094047
   38  C  3  Y   -0.105103   0.158402  -0.119126   0.120440   0.009161
   39  C  3  Z    0.315775  -0.269953   0.400843   0.132237  -0.081623
   40  C  3 XX    0.586938  -0.402575   0.502091  -0.349863  -0.688419
   41  C  3 YY   -0.379069   0.089587  -0.339022  -0.601129  -0.774995
   42  C  3 ZZ   -0.274454   0.206433  -0.244231  -0.586569  -0.786299
   43  C  3 XY    0.080166   0.052307   0.065964  -0.027618   0.035327
   44  C  3 XZ   -0.478229  -0.057275  -0.321055   0.085896  -0.040327
   45  C  3 YZ   -0.027024  -0.134667  -0.037963  -0.071574   0.009627
   46  C  4  S   -0.055443  -0.000035   0.062159   0.161009  -0.194086
   47  C  4  S    0.020948   0.024650  -0.031786  -0.640755   1.342405
   48  C  4  X   -0.293453  -0.133702   0.327429   0.007344  -0.071628
   49  C  4  Y   -0.066411  -0.041893   0.064376   0.013733  -0.008405
   50  C  4  Z   -0.136425  -0.055637   0.124688  -0.068787  -0.024781
   51  C  4  S    1.310177   0.626397  -1.679668  -0.913525   0.417267
   52  C  4  X   -0.735024  -0.269241   0.858188  -0.015596   0.094047
   53  C  4  Y   -0.105103  -0.158402   0.119126  -0.120440   0.009161
   54  C  4  Z   -0.315775  -0.269953   0.400843   0.132237   0.081623
   55  C  4 XX    0.586938   0.402575  -0.502091   0.349863  -0.688419
   56  C  4 YY   -0.379069  -0.089587   0.339022   0.601129  -0.774995
   57  C  4 ZZ   -0.274454  -0.206433   0.244231   0.586569  -0.786299
   58  C  4 XY    0.080166  -0.052307  -0.065964   0.027618   0.035327
   59  C  4 XZ    0.478229  -0.057275  -0.321055   0.085896   0.040327
   60  C  4 YZ    0.027024  -0.134667  -0.037963  -0.071574  -0.009627
   61  H  5  S    0.098965   0.065428   0.004243  -0.144967   0.132904
   62  H  5  S   -0.198634   0.176891  -0.205403   0.016427  -0.191767
   63  H  6  S    0.098965  -0.065428  -0.004243   0.144967   0.132904
   64  H  6  S   -0.198634  -0.176891   0.205403  -0.016427  -0.191767
   65  H  7  S    0.099821  -0.164321   0.048752   0.013551   0.096970
   66  H  7  S   -0.035884  -0.032552   0.013408  -0.279033  -0.197422
   67  H  8  S    0.099821   0.164321  -0.048752  -0.013551   0.096970
   68  H  8  S   -0.035884   0.032552  -0.013408   0.279033  -0.197422
   69  H  9  S   -0.106908   0.205553  -0.130646  -0.043993   0.092009
   70  H  9  S    0.080767  -0.125600   0.158838  -0.196086  -0.165980
   71  H 10  S   -0.106908  -0.205553   0.130646   0.043993   0.092009
   72  H 10  S    0.080767   0.125600  -0.158838   0.196086  -0.165980

                     71         72
                    4.6323     4.7362
                     A'         A'' 
    1  C  1  S    0.198250   0.143135
    2  C  1  S   -1.276824  -0.967314
    3  C  1  X    0.136031   0.144822
    4  C  1  Y    0.021186   0.014631
    5  C  1  Z   -0.080156   0.013650
    6  C  1  S   -0.824280  -1.187463
    7  C  1  X   -0.083651  -0.214551
    8  C  1  Y   -0.004802   0.022803
    9  C  1  Z    0.066194  -0.085513
   10  C  1 XX    0.982941   0.742927
   11  C  1 YY    0.774390   0.549535
   12  C  1 ZZ    0.707611   0.731327
   13  C  1 XY    0.040311   0.040852
   14  C  1 XZ   -0.095466  -0.143132
   15  C  1 YZ   -0.022862  -0.032064
   16  C  2  S    0.198250  -0.143135
   17  C  2  S   -1.276824   0.967314
   18  C  2  X    0.136031  -0.144822
   19  C  2  Y    0.021186  -0.014631
   20  C  2  Z    0.080156   0.013650
   21  C  2  S   -0.824280   1.187463
   22  C  2  X   -0.083651   0.214551
   23  C  2  Y   -0.004802  -0.022803
   24  C  2  Z   -0.066194  -0.085513
   25  C  2 XX    0.982941  -0.742927
   26  C  2 YY    0.774390  -0.549535
   27  C  2 ZZ    0.707611  -0.731327
   28  C  2 XY    0.040311  -0.040852
   29  C  2 XZ    0.095466  -0.143132
   30  C  2 YZ    0.022862  -0.032064
   31  C  3  S   -0.259830  -0.303407
   32  C  3  S    1.743799   1.878985
   33  C  3  X    0.138108   0.095097
   34  C  3  Y    0.027346   0.017670
   35  C  3  Z   -0.053713  -0.053486
   36  C  3  S    1.126205   1.593098
   37  C  3  X   -0.111134  -0.051701
   38  C  3  Y   -0.020961  -0.098182
   39  C  3  Z   -0.012027   0.184411
   40  C  3 XX   -1.225393  -1.365760
   41  C  3 YY   -1.014199  -1.183792
   42  C  3 ZZ   -1.055750  -1.143774
   43  C  3 XY   -0.015962  -0.017841
   44  C  3 XZ    0.079028   0.057773
   45  C  3 YZ    0.014069   0.036450
   46  C  4  S   -0.259830   0.303407
   47  C  4  S    1.743799  -1.878985
   48  C  4  X    0.138108  -0.095097
   49  C  4  Y    0.027346  -0.017670
   50  C  4  Z    0.053713  -0.053486
   51  C  4  S    1.126205  -1.593098
   52  C  4  X   -0.111134   0.051701
   53  C  4  Y   -0.020961   0.098182
   54  C  4  Z    0.012027   0.184411
   55  C  4 XX   -1.225393   1.365760
   56  C  4 YY   -1.014199   1.183792
   57  C  4 ZZ   -1.055750   1.143774
   58  C  4 XY   -0.015962   0.017841
   59  C  4 XZ   -0.079028   0.057773
   60  C  4 YZ   -0.014069   0.036450
   61  H  5  S   -0.080106  -0.024368
   62  H  5  S    0.186314   0.119376
   63  H  6  S   -0.080106   0.024368
   64  H  6  S    0.186314  -0.119376
   65  H  7  S    0.075286   0.102220
   66  H  7  S   -0.224668  -0.207786
   67  H  8  S    0.075286  -0.102220
   68  H  8  S   -0.224668   0.207786
   69  H  9  S    0.105947   0.095133
   70  H  9  S   -0.210366  -0.381160
   71  H 10  S    0.105947  -0.095133
   72  H 10  S   -0.210366   0.381160
 .....DONE WITH MCSCF ITERATIONS.....
 CPU     0: STEP CPU TIME=     4.41 TOTAL CPU TIME=        4.8 (    0.1 MIN)
 TOTAL WALL CLOCK TIME=        4.8 SECONDS, CPU UTILIZATION IS 100.00%

     ----------------------------------------------------------------
     PROPERTY VALUES FOR THE MCSCF SELF-CONSISTENT FIELD WAVEFUNCTION
     ----------------------------------------------------------------

          -----------------
          ENERGY COMPONENTS
          -----------------

         WAVEFUNCTION NORMALIZATION =       1.0000000000

                ONE ELECTRON ENERGY =    -414.7978541029
                TWO ELECTRON ENERGY =     310.0654924028
           NUCLEAR REPULSION ENERGY =     104.7323617001
                                      ------------------
                       TOTAL ENERGY =       0.0000000000

 ELECTRON-ELECTRON POTENTIAL ENERGY =     310.0654924028
  NUCLEUS-ELECTRON POTENTIAL ENERGY =    -569.1560887128
   NUCLEUS-NUCLEUS POTENTIAL ENERGY =     104.7323617001
                                      ------------------
             TOTAL POTENTIAL ENERGY =    -154.3582346099
               TOTAL KINETIC ENERGY =     154.3582346099
                 VIRIAL RATIO (V/T) =       1.0000000000

          ---------------------------------------
          MULLIKEN AND LOWDIN POPULATION ANALYSES
          ---------------------------------------

     ATOMIC MULLIKEN POPULATION IN EACH MOLECULAR ORBITAL

                      1          2          3          4          5

                  2.000000   2.000000   2.000000   2.000000   2.000000

    1             0.000512   0.001157   0.998588   0.999316   0.594018
    2             0.000512   0.001157   0.998588   0.999316   0.594018
    3             0.999065   0.998427   0.001118   0.000585   0.350979
    4             0.999065   0.998427   0.001118   0.000585   0.350979
    5            -0.000002  -0.000020   0.000291   0.000094   0.012032
    6            -0.000002  -0.000020   0.000291   0.000094   0.012032
    7             0.000185   0.000164   0.000007   0.000004   0.020394
    8             0.000185   0.000164   0.000007   0.000004   0.020394
    9             0.000240   0.000272  -0.000004   0.000001   0.022576
   10             0.000240   0.000272  -0.000004   0.000001   0.022576

                      6          7          8          9         10

                  2.000000   2.000000   2.000000   2.000000   2.000000

    1             0.270504   0.368253   0.387289   0.334553   0.224646
    2             0.270504   0.368253   0.387289   0.334553   0.224646
    3             0.584557   0.366814   0.284819   0.351344   0.446509
    4             0.584557   0.366814   0.284819   0.351344   0.446509
    5             0.016064   0.083511   0.172109   0.138528   0.053279
    6             0.016064   0.083511   0.172109   0.138528   0.053279
    7             0.084178   0.069783   0.049707   0.164607   0.019115
    8             0.084178   0.069783   0.049707   0.164607   0.019115
    9             0.044696   0.111638   0.106077   0.010968   0.256450
   10             0.044696   0.111638   0.106077   0.010968   0.256450

                     11         12         13         14         15

                  2.000000   2.000000   2.000000   1.999688   1.881576

    1             0.071656   0.343437   0.568791  -0.004514   0.930940
    2             0.071656   0.343437   0.568791  -0.004514   0.930940
    3             0.510567   0.363036   0.224487   0.949369   0.001424
    4             0.510567   0.363036   0.224487   0.949369   0.001424
    5             0.044788   0.170613   0.074003   0.055329  -0.002007
    6             0.044788   0.170613   0.074003   0.055329  -0.002007
    7             0.160517   0.119463   0.126514   0.004871   0.003920
    8             0.160517   0.119463   0.126514   0.004871   0.003920
    9             0.212472   0.003451   0.006205  -0.005212   0.006510
   10             0.212472   0.003451   0.006205  -0.005212   0.006510

                     16         17

                  0.118451   0.000285

    1             0.059813   0.000062
    2             0.059813   0.000062
    3            -0.001195   0.000076
    4            -0.001195   0.000076
    5             0.000196  -0.000001
    6             0.000196  -0.000001
    7             0.000217   0.000006
    8             0.000217   0.000006
    9             0.000194   0.000000
   10             0.000194   0.000000
 WARNING! MCSCF POPULATIONS SHOWN ABOVE ARE FOR THE NATURAL ORBITALS.
 IGNORE THE ABOVE DATA FOR MCSCF FUNCTIONS WHICH ARE NOT OF -FORS- TYPE.
 THE FOLLOWING POPULATIONS ARE CORRECT FOR ANY MCSCF WAVEFUNCTION.

               ----- POPULATIONS IN EACH AO -----
                             MULLIKEN      LOWDIN
              1  C  1  S      1.99654     1.98003
              2  C  1  S      0.66306     0.35779
              3  C  1  X      0.69900     0.61937
              4  C  1  Y      0.54192     0.51071
              5  C  1  Z      0.69657     0.63227
              6  C  1  S      0.54504     0.32179
              7  C  1  X      0.25037     0.39739
              8  C  1  Y      0.44365     0.47241
              9  C  1  Z      0.25645     0.37624
             10  C  1 XX      0.03251     0.18681
             11  C  1 YY     -0.01779     0.10638
             12  C  1 ZZ      0.01616     0.16894
             13  C  1 XY      0.00427     0.00969
             14  C  1 XZ      0.01648     0.02839
             15  C  1 YZ      0.00483     0.00922
             16  C  2  S      1.99654     1.98003
             17  C  2  S      0.66306     0.35779
             18  C  2  X      0.69900     0.61937
             19  C  2  Y      0.54192     0.51071
             20  C  2  Z      0.69657     0.63227
             21  C  2  S      0.54504     0.32179
             22  C  2  X      0.25037     0.39739
             23  C  2  Y      0.44365     0.47241
             24  C  2  Z      0.25645     0.37624
             25  C  2 XX      0.03251     0.18681
             26  C  2 YY     -0.01779     0.10638
             27  C  2 ZZ      0.01616     0.16894
             28  C  2 XY      0.00427     0.00969
             29  C  2 XZ      0.01648     0.02839
             30  C  2 YZ      0.00483     0.00922
             31  C  3  S      1.99666     1.98111
             32  C  3  S      0.66747     0.36706
             33  C  3  X      0.72339     0.64359
             34  C  3  Y      0.57853     0.54044
             35  C  3  Z      0.58351     0.53796
             36  C  3  S      0.65243     0.35033
             37  C  3  X      0.26554     0.40811
             38  C  3  Y      0.45335     0.50618
             39  C  3  Z      0.45424     0.49039
             40  C  3 XX      0.03286     0.19193
             41  C  3 YY     -0.00309     0.13448
             42  C  3 ZZ      0.00506     0.14228
             43  C  3 XY      0.00926     0.01664
             44  C  3 XZ      0.00451     0.00902
             45  C  3 YZ      0.00827     0.01180
             46  C  4  S      1.99666     1.98111
             47  C  4  S      0.66747     0.36706
             48  C  4  X      0.72339     0.64359
             49  C  4  Y      0.57853     0.54044
             50  C  4  Z      0.58351     0.53796
             51  C  4  S      0.65243     0.35033
             52  C  4  X      0.26554     0.40811
             53  C  4  Y      0.45335     0.50618
             54  C  4  Z      0.45424     0.49039
             55  C  4 XX      0.03286     0.19193
             56  C  4 YY     -0.00309     0.13448
             57  C  4 ZZ      0.00506     0.14228
             58  C  4 XY      0.00926     0.01664
             59  C  4 XZ      0.00451     0.00902
             60  C  4 YZ      0.00827     0.01180
             61  H  5  S      0.51980     0.48156
             62  H  5  S      0.29901     0.36335
             63  H  6  S      0.51980     0.48156
             64  H  6  S      0.29901     0.36335
             65  H  7  S      0.52321     0.48483
             66  H  7  S      0.30044     0.35076
             67  H  8  S      0.52321     0.48483
             68  H  8  S      0.30044     0.35076
             69  H  9  S      0.51298     0.47057
             70  H  9  S      0.26355     0.34017
             71  H 10  S      0.51298     0.47057
             72  H 10  S      0.26355     0.34017

          ----- MULLIKEN ATOMIC OVERLAP POPULATIONS -----
          (OFF-DIAGONAL ELEMENTS NEED TO BE MULTIPLIED BY 2)

             1           2           3           4           5

    1    5.1386239
    2    0.6386459   5.1386239
    3    0.2573990  -0.1181085   5.3719173
    4   -0.1181085   0.2573990   0.1982812   5.3719173
    5    0.3531018  -0.0434316  -0.0253480   0.0076482   0.5199891
    6   -0.0434316   0.3531018   0.0076482  -0.0253480   0.0065377
    7   -0.0556865   0.0030861   0.3818413   0.0016214   0.0007537
    8    0.0030861  -0.0556865   0.0016214   0.3818413  -0.0001083
    9   -0.0245970  -0.0000093   0.3759762  -0.0192478  -0.0001214
   10   -0.0000093  -0.0245970  -0.0192478   0.3759762  -0.0002119

             6           7           8           9          10

    6    0.5199891
    7   -0.0001083   0.5194127
    8    0.0007537   0.0000070   0.5194127
    9   -0.0002119  -0.0269582  -0.0003172   0.4636913
   10   -0.0001214  -0.0003172  -0.0269582   0.0083300   0.4636913

          TOTAL MULLIKEN AND LOWDIN ATOMIC POPULATIONS
       ATOM         MULL.POP.    CHARGE          LOW.POP.     CHARGE
    1 CARBON        6.149024   -0.149024         6.177433   -0.177433
    2 CARBON        6.149024   -0.149024         6.177433   -0.177433
    3 CARBON        6.431980   -0.431980         6.331332   -0.331332
    4 CARBON        6.431980   -0.431980         6.331332   -0.331332
    5 HYDROGEN      0.818809    0.181191         0.844908    0.155092
    6 HYDROGEN      0.818809    0.181191         0.844908    0.155092
    7 HYDROGEN      0.823652    0.176348         0.835590    0.164410
    8 HYDROGEN      0.823652    0.176348         0.835590    0.164410
    9 HYDROGEN      0.776535    0.223465         0.810737    0.189263
   10 HYDROGEN      0.776535    0.223465         0.810737    0.189263

          ---------------------
          ELECTROSTATIC MOMENTS
          ---------------------

 POINT   1           X           Y           Z (BOHR)    CHARGE
                -0.246342   -0.035997    0.000000        0.00 (A.U.)
         DX          DY          DZ         /D/  (DEBYE)
     0.150288   -0.423821    0.000000    0.449679
 ...... END OF PROPERTY EVALUATION ......
 CPU     0: STEP CPU TIME=     0.01 TOTAL CPU TIME=        4.8 (    0.1 MIN)
 TOTAL WALL CLOCK TIME=        4.8 SECONDS, CPU UTILIZATION IS 100.00%
                   580000  WORDS OF DYNAMIC MEMORY USED
 EXECUTION OF GAMESS TERMINATED NORMALLY Fri Nov 17 10:58:56 2023
 DDI: 263624 bytes (0.3 MB / 0 MWords) used by master data server.

 ----------------------------------------
 CPU timing information for all processes
 ========================================
 0: 2.964019 + 0.951606 = 3.915625
 1: 2.652017 + 0.826805 = 3.478822
 2: 2.761217 + 0.811205 = 3.572422
 3: 2.652017 + 0.670804 = 3.322821
 4: 0.842405 + 0.078000 = 0.920405
 5: 0.000000 + 0.000000 = 0.000000
 6: 0.000000 + 0.000000 = 0.000000
 7: 0.000000 + 0.015600 = 0.015600
 ----------------------------------------
           Disk usage (in bytes)       
 ========================================
 ----------------------------------------
            Local date and time          
 ========================================
17.11.2023 - 10:59:02.90                          
