          ******************************************************
          *         GAMESS VERSION =  1 MAY 2013 (R1)          *
          *             FROM IOWA STATE UNIVERSITY             *
          * M.W.SCHMIDT, K.K.BALDRIDGE, J.A.BOATZ, S.T.ELBERT, *
          *   M.S.GORDON, J.H.JENSEN, S.KOSEKI, N.MATSUNAGA,   *
          *          K.A.NGUYEN, S.J.SU, T.L.WINDUS,           *
          *       TOGETHER WITH M.DUPUIS, J.A.MONTGOMERY       *
          *         J.COMPUT.CHEM.  14, 1347-1363(1993)        *
          *************** 64 BIT WINDOWS VERSION ***************

  SINCE 1993, STUDENTS AND POSTDOCS WORKING AT IOWA STATE UNIVERSITY
  AND ALSO IN THEIR VARIOUS JOBS AFTER LEAVING ISU HAVE MADE IMPORTANT
  CONTRIBUTIONS TO THE CODE:
     IVANA ADAMOVIC, CHRISTINE AIKENS, YURI ALEXEEV, POOJA ARORA,
     ANDREY ASADCHEV, ROB BELL, PRADIPTA BANDYOPADHYAY, JONATHAN BENTZ,
     BRETT BODE, GALINA CHABAN, WEI CHEN, CHEOL HO CHOI, PAUL DAY,
     ALBERT DEFUSCO, TIM DUDLEY, DMITRI FEDOROV, GRAHAM FLETCHER,
     MARK FREITAG, KURT GLAESEMANN, DAN KEMP, GRANT MERRILL,
     NORIYUKI MINEZAWA, JONATHAN MULLIN, TAKESHI NAGATA,
     SEAN NEDD, HEATHER NETZLOFF, BOSILJKA NJEGIC, RYAN OLSON, MIKE PAK,
     JIM SHOEMAKER, LYUDMILA SLIPCHENKO, SAROM SOK, JIE SONG,
     TETSUYA TAKETSUGU, SIMON WEBB, SOOHAENG YOO, FEDERICO ZAHARIEV

  ADDITIONAL CODE HAS BEEN PROVIDED BY COLLABORATORS IN OTHER GROUPS:
     IOWA STATE UNIVERSITY:
          JOE IVANIC, LAIMUTIS BYTAUTAS, KLAUS RUEDENBERG
     UNIVERSITY OF TOKYO: KIMIHIKO HIRAO, TAKAHITO NAKAJIMA,
          TAKAO TSUNEDA, MUNEAKI KAMIYA, SUSUMU YANAGISAWA,
          KIYOSHI YAGI, MAHITO CHIBA, SEIKEN TOKURA, NAOAKI KAWAKAMI
     UNIVERSITY OF AARHUS: FRANK JENSEN
     UNIVERSITY OF IOWA: VISVALDAS KAIRYS, HUI LI
     NATIONAL INST. OF STANDARDS AND TECHNOLOGY: WALT STEVENS, DAVID GARMER
     UNIVERSITY OF PISA: BENEDETTA MENNUCCI, JACOPO TOMASI
     UNIVERSITY OF MEMPHIS: HENRY KURTZ, PRAKASHAN KORAMBATH
     UNIVERSITY OF ALBERTA: TOBY ZENG, MARIUSZ KLOBUKOWSKI
     UNIVERSITY OF NEW ENGLAND: MARK SPACKMAN
     MIE UNIVERSITY: HIROAKI UMEDA
     MICHIGAN STATE UNIVERSITY:
          KAROL KOWALSKI, MARTA WLOCH, JEFFREY GOUR, JESSE LUTZ,
          WEI LI, PIOTR PIECUCH
     UNIVERSITY OF SILESIA: MONIKA MUSIAL, STANISLAW KUCHARSKI
     FACULTES UNIVERSITAIRES NOTRE-DAME DE LA PAIX:
          OLIVIER QUINET, BENOIT CHAMPAGNE
     UNIVERSITY OF CALIFORNIA - SANTA BARBARA: BERNARD KIRTMAN
     INSTITUTE FOR MOLECULAR SCIENCE:
          KAZUYA ISHIMURA, MICHIO KATOUDA, AND SHIGERU NAGASE
     UNIVERSITY OF NOTRE DAME: DAN CHIPMAN
     KYUSHU UNIVERSITY:
          HARUYUKI NAKANO,
          FENG LONG GU, JACEK KORCHOWIEC, MARCIN MAKOWSKI, AND YURIKO AOKI,
          HIROTOSHI MORI AND EISAKU MIYOSHI
     PENNSYLVANIA STATE UNIVERSITY:
          TZVETELIN IORDANOV, CHET SWALINA, JONATHAN SKONE,
          SHARON HAMMES-SCHIFFER
     WASEDA UNIVERSITY:
          MASATO KOBAYASHI, TOMOKO AKAMA, TSUGUKI TOUMA,
          TAKESHI YOSHIKAWA, YASUHIRO IKABATA, HIROMI NAKAI
     NANJING UNIVERSITY: SHUHUA LI
     UNIVERSITY OF NEBRASKA:
          PEIFENG SU, DEJUN SI, NANDUN THELLAMUREGE, YALI WANG, HUI LI
     UNIVERSITY OF ZURICH:
          ROBERTO PEVERATI, KIM BALDRIDGE
     N. COPERNICUS UNIVERSITY AND JACKSON STATE UNIVERSITY:
          MARIA BARYSZ


 PARALLEL VERSION RUNNING ON     4 PROCESSORS IN     4 NODES.

 EXECUTION OF GAMESS BEGUN Fri Nov 17 11:16:27 2023

            ECHO OF THE FIRST FEW INPUT CARDS -
 INPUT CARD> $CONTRL                                                                        
 INPUT CARD>! runtyp=hessian                                                                
 INPUT CARD> runtyp=sadpoint                                                                
 INPUT CARD> scftyp=mcscf                                                                   
 INPUT CARD> $END                                                                           
 INPUT CARD> $basis gbasis=n31 ngauss=6 ndfunc=1 $end                                       
 INPUT CARD>! $Guess guess=moread norb=17 norder=0 iorder(17)=19,17,18  prtmo=.t. $end      
 INPUT CARD>! $Mcscf fulnr=.t. $end                                                         
 INPUT CARD> $statpt NSTEP=100 ifolow=1 hssend=.t. $end                                     
 INPUT CARD> $dEt group=cs  ncore=13 nact=4 neLs=4 SZ=0 nstate=1 $end                       
 INPUT CARD> $DATA                                                                          
 INPUT CARD> C4H6                                                                           
 INPUT CARD>Cs                                                                              
 INPUT CARD>                                                                                
 INPUT CARD>CARBON      6.0     -0.823047222        -0.120269484         0.735582760        
 INPUT CARD>CARBON      6.0      0.517107777         0.075564270         1.250000000        
 INPUT CARD>HYDROGEN    1.0     -1.794762132        -0.262263940         1.205477480        
 INPUT CARD>HYDROGEN    1.0      0.492785102         0.731633825         2.114018692        
 INPUT CARD>HYDROGEN    1.0      1.449362034        -0.447844877         1.064283697        
 INPUT CARD> $END                                                                           
 INPUT CARD> $HESS                                                                          
 INPUT CARD>ENERGY IS     -154.8388968304 E(NUC) IS      104.7323617001                     
 INPUT CARD> 1  1 6.02479981E-01 7.83165634E-02 1.77456684E-01-1.99678831E-01 1.25653590E-02
 INPUT CARD> 1  2-1.29475330E-01-1.73976281E-01 3.66591843E-03 8.13684574E-02 7.65518860E-02
 INPUT CARD> 1  3 9.95710239E-03-6.10163649E-02-2.89041835E-01-7.40497267E-02-1.08279980E-01
 INPUT CARD> 1  4 4.50437081E-03-1.31390569E-02 3.36609139E-02 9.07248671E-03 2.86551688E-02
 INPUT CARD> 1  5 2.62346614E-02-2.59205944E-03 1.29259084E-02-1.54179159E-02-2.19721550E-02
 INPUT CARD> 1  6-4.14794534E-02-2.22526472E-02-5.34758114E-03-1.74178059E-02 1.77215492E-02
 INPUT CARD> 2  1 7.83165634E-02 1.19071713E-01-3.21274793E-02 1.25653590E-02-5.02429042E-02
 INPUT CARD> 2  2 1.21635586E-02-2.66862616E-02-5.38539814E-02 3.57161216E-02-1.52837931E-02
 INPUT CARD> 2  3 3.31411645E-03-5.43407714E-03-3.64540745E-02-2.87003372E-02-8.35794843E-03
 INPUT CARD> 2  4-3.73573793E-04 4.66862177E-03 1.05982279E-03-1.59132692E-02 4.15678580E-03
 INPUT CARD> 2  5 9.61085255E-03-1.32702165E-03 1.44123076E-03-2.35032353E-03 5.56697184E-03
 INPUT CARD> 2  6-5.88792276E-04-9.52543934E-03-4.10892875E-04 7.33544519E-04-7.55106683E-04
 INPUT CARD> 3  1 1.77456684E-01-3.21274793E-02 3.38306947E-01 1.29475330E-01-1.21635586E-02
 INPUT CARD> 3  2-5.40093971E-02-6.85309594E-02 1.36510248E-02-1.26501847E-01-1.39509026E-01
 INPUT CARD> 3  3-3.07080707E-02-2.15845543E-02-1.23731213E-01 2.19521231E-02-1.22696840E-01
 INPUT CARD> 3  4-5.08525747E-03 3.05343754E-02-9.97076928E-03 2.81398062E-02-2.07233179E-02
 INPUT CARD> 3  5-3.57916386E-02-8.35780226E-03-2.61114444E-02 2.20754125E-02-9.41387696E-05
 INPUT CARD> 3  6 2.56447275E-02 3.64213057E-02 1.02365819E-02 3.00516109E-02-2.62486048E-02
 INPUT CARD> 4  1-1.99678831E-01 1.25653590E-02 1.29475330E-01 6.02479981E-01 7.83165634E-02
 INPUT CARD> 4  2-1.77456684E-01 7.65518860E-02 9.95710239E-03 6.10163649E-02-1.73976281E-01
 INPUT CARD> 4  3 3.66591843E-03-8.13684574E-02 4.50437081E-03-1.31390569E-02-3.36609139E-02
 INPUT CARD> 4  4-2.89041835E-01-7.40497267E-02 1.08279980E-01-2.59205944E-03 1.29259084E-02
 INPUT CARD> 4  5 1.54179159E-02 9.07248671E-03 2.86551688E-02-2.62346614E-02-5.34758114E-03
 INPUT CARD> 4  6-1.74178059E-02-1.77215492E-02-2.19721550E-02-4.14794534E-02 2.22526472E-02
 INPUT CARD> 5  1 1.25653590E-02-5.02429042E-02-1.21635586E-02 7.83165634E-02 1.19071713E-01
 INPUT CARD> 5  2 3.21274793E-02-1.52837931E-02 3.31411645E-03 5.43407714E-03-2.66862616E-02
 INPUT CARD> 5  3-5.38539814E-02-3.57161216E-02-3.73573793E-04 4.66862177E-03-1.05982279E-03
 INPUT CARD> 5  4-3.64540745E-02-2.87003372E-02 8.35794843E-03-1.32702165E-03 1.44123076E-03
    1000000 WORDS OF MEMORY AVAILABLE

     BASIS OPTIONS
     -------------
     GBASIS=N31          IGAUSS=       6      POLAR=POPN31  
     NDFUNC=       1     NFFUNC=       0     DIFFSP=       F
     NPFUNC=       0      DIFFS=       F     BASNAM=        


     RUN TITLE
     ---------
  C4H6                                                                           

 THE POINT GROUP OF THE MOLECULE IS CS      
 THE ORDER OF THE PRINCIPAL AXIS IS     0

 ATOM      ATOMIC                      COORDINATES (BOHR)
           CHARGE         X                   Y                   Z
 CARBON      6.0    -1.5553337245       -0.2272763694       -1.3900498577
 CARBON      6.0    -1.5553337245       -0.2272763694        1.3900498577
 CARBON      6.0     0.9771920046        0.1427957648       -2.3621574847
 CARBON      6.0     0.9771920046        0.1427957648        2.3621574847
 HYDROGEN    1.0    -3.3916086426       -0.4956069831       -2.2780221216
 HYDROGEN    1.0    -3.3916086426       -0.4956069831        2.2780221216
 HYDROGEN    1.0     0.9312288136        1.3825874526       -3.9949160608
 HYDROGEN    1.0     0.9312288136        1.3825874526        3.9949160608
 HYDROGEN    1.0     2.7388971013       -0.8463041025       -2.0112045605
 HYDROGEN    1.0     2.7388971013       -0.8463041025        2.0112045605

          INTERNUCLEAR DISTANCES (ANGS.)
          ------------------------------

                1 CARB       2 CARB       3 CARB       4 CARB       5 HYDR  

   1 CARB    0.0000000    1.4711655 *  1.4487896 *  2.4035193 *  1.0886659 *
   2 CARB    1.4711655 *  0.0000000    2.4035193 *  1.4487896 *  2.1753407 *
   3 CARB    1.4487896 *  2.4035193 *  0.0000000    2.5000000 *  2.3368467 *
   4 CARB    2.4035193 *  1.4487896 *  2.5000000 *  0.0000000    3.3894306  
   5 HYDR    1.0886659 *  2.1753407 *  2.3368467 *  3.3894306    0.0000000  
   6 HYDR    2.1753407 *  1.0886659 *  3.3894306    2.3368467 *  2.4109550 *
   7 HYDR    2.0874002 *  3.2522888    1.0851484 *  3.4274831    2.6544589 *
   8 HYDR    3.2522888    2.0874002 *  3.4274831    1.0851484 *  4.1520790  
   9 HYDR    2.3193089 *  2.9173050 *  1.0851478 *  2.5493066 *  3.2524941  
  10 HYDR    2.9173050 *  2.3193089 *  2.5493066 *  1.0851478 *  3.9636596  

                6 HYDR       7 HYDR       8 HYDR       9 HYDR      10 HYDR  

   1 CARB    2.1753407 *  2.0874002 *  3.2522888    2.3193089 *  2.9173050 *
   2 CARB    1.0886659 *  3.2522888    2.0874002 *  2.9173050 *  2.3193089 *
   3 CARB    3.3894306    1.0851484 *  3.4274831    1.0851478 *  2.5493066 *
   4 CARB    2.3368467 *  3.4274831    1.0851484 *  2.5493066 *  1.0851478 *
   5 HYDR    2.4109550 *  2.6544589 *  4.1520790    3.2524941    3.9636596  
   6 HYDR    0.0000000    4.1520790    2.6544589 *  3.9636596    3.2524941  
   7 HYDR    4.1520790    0.0000000    4.2280374    1.8461184 *  3.5224729  
   8 HYDR    2.6544589 *  4.2280374    0.0000000    3.5224729    1.8461184 *
   9 HYDR    3.9636596    1.8461184 *  3.5224729    0.0000000    2.1285674 *
  10 HYDR    3.2524941    3.5224729    1.8461184 *  2.1285674 *  0.0000000  

  * ... LESS THAN  3.000


     ATOMIC BASIS SET
     ----------------
 THE CONTRACTED PRIMITIVE FUNCTIONS HAVE BEEN UNNORMALIZED
 THE CONTRACTED BASIS FUNCTIONS ARE NOW NORMALIZED TO UNITY

  SHELL TYPE  PRIMITIVE        EXPONENT          CONTRACTION COEFFICIENT(S)

 CARBON    

      5   S       1          3047.5248800    0.001834737132
      5   S       2           457.3695180    0.014037322813
      5   S       3           103.9486850    0.068842622264
      5   S       4            29.2101553    0.232184443216
      5   S       5             9.2866630    0.467941348435
      5   S       6             3.1639270    0.362311985337

      6   L       7             7.8682723   -0.119332419775    0.068999066591
      6   L       8             1.8812885   -0.160854151696    0.316423960957
      6   L       9             0.5442493    1.143456437840    0.744308290898

      7   L      10             0.1687145    1.000000000000    1.000000000000

      8   D      11             0.8000000    1.000000000000

 CARBON    

     13   S      12          3047.5248800    0.001834737132
     13   S      13           457.3695180    0.014037322813
     13   S      14           103.9486850    0.068842622264
     13   S      15            29.2101553    0.232184443216
     13   S      16             9.2866630    0.467941348435
     13   S      17             3.1639270    0.362311985337

     14   L      18             7.8682723   -0.119332419775    0.068999066591
     14   L      19             1.8812885   -0.160854151696    0.316423960957
     14   L      20             0.5442493    1.143456437840    0.744308290898

     15   L      21             0.1687145    1.000000000000    1.000000000000

     16   D      22             0.8000000    1.000000000000

 HYDROGEN  

     19   S      23            18.7311370    0.033494604338
     19   S      24             2.8253944    0.234726953484
     19   S      25             0.6401217    0.813757326146

     20   S      26             0.1612778    1.000000000000

 HYDROGEN  

     23   S      27            18.7311370    0.033494604338
     23   S      28             2.8253944    0.234726953484
     23   S      29             0.6401217    0.813757326146

     24   S      30             0.1612778    1.000000000000

 HYDROGEN  

     27   S      31            18.7311370    0.033494604338
     27   S      32             2.8253944    0.234726953484
     27   S      33             0.6401217    0.813757326146

     28   S      34             0.1612778    1.000000000000

 TOTAL NUMBER OF BASIS SET SHELLS             =   28
 NUMBER OF CARTESIAN GAUSSIAN BASIS FUNCTIONS =   72
 NUMBER OF ELECTRONS                          =   30
 CHARGE OF MOLECULE                           =    0
 SPIN MULTIPLICITY                            =    1
 NUMBER OF OCCUPIED ORBITALS (ALPHA)          =   15
 NUMBER OF OCCUPIED ORBITALS (BETA )          =   15
 TOTAL NUMBER OF ATOMS                        =   10
 THE NUCLEAR REPULSION ENERGY IS      104.7323617001

     $NEO OPTIONS
     ------------
     NUNIQN=       0     BASNUC=DZSNB        NEOSCF=NONE    
     NEOCI =NONE         NUMULT=       2     NUCST =       1
     NAUXNB=       0     VNUCEX=       F     NUCOPT=       F
     NTAUXB=       0     NEOHSS=       F     HSSINI=READH   
     HSSUPD=POWELLUP     DIRNUC=       F     SYMNUC=       F
     QMTOLN= 0.0E+00     USRDEX=       F
     POSNEO=       F     POSPRP=       F
     NEONCI=       F     LOCORB=       0

     $CONTRL OPTIONS
     ---------------
 SCFTYP=MCSCF        RUNTYP=SADPOINT     EXETYP=RUN     
 MPLEVL=       0     CITYP =NONE         CCTYP =NONE         VBTYP =NONE    
 DFTTYP=NONE         TDDFT =NONE    
 MULT  =       1     ICHARG=       0     NZVAR =       0     COORD =UNIQUE  
 PP    =NONE         RELWFN=NONE         LOCAL =NONE         NUMGRD=       F
 ISPHER=      -1     NOSYM =       0     MAXIT =      30     UNITS =ANGS    
 PLTORB=       F     MOLPLT=       F     AIMPAC=       F     FRIEND=        
 NPRINT=       7     IREST =       0     GEOM  =INPUT   
 NORMF =       0     NORMP =       0     ITOL  =      20     ICUT  =       9
 INTTYP=BEST         GRDTYP=BEST         QMTTOL= 1.0E-06

     $SYSTEM OPTIONS
     ---------------
  REPLICATED MEMORY=     1000000 WORDS (ON EVERY NODE).
 DISTRIBUTED MEMDDI=           0 MILLION WORDS IN AGGREGATE,
 MEMDDI DISTRIBUTED OVER   4 PROCESSORS IS           0 WORDS/PROCESSOR.
 TOTAL MEMORY REQUESTED ON EACH PROCESSOR=     1000000 WORDS.
 TIMLIM=      525600.00 MINUTES, OR     365.0 DAYS.
 PARALL= T  BALTYP=  DLB     KDIAG=    0  COREFL= F
 MXSEQ2=     300 MXSEQ3=     150

          ----------------
          PROPERTIES INPUT
          ----------------

     MOMENTS            FIELD           POTENTIAL          DENSITY
 IEMOM =       1   IEFLD =       0   IEPOT =       0   IEDEN =       0
 WHERE =COMASS     WHERE =NUCLEI     WHERE =NUCLEI     WHERE =NUCLEI  
 OUTPUT=BOTH       OUTPUT=BOTH       OUTPUT=BOTH       OUTPUT=BOTH    
 IEMINT=       0   IEFINT=       0                     IEDINT=       0
                                                       MORB  =       0

     -------------------------------
     INTEGRAL TRANSFORMATION OPTIONS
     -------------------------------
     NWORD  =            0
     CUTOFF = 1.0E-09     MPTRAN =       0
     DIRTRF =       F     AOINTS =DUP     

          ----------------------
          MCSCF INPUT PARAMETERS
          ----------------------
 CONVERGER SELECTION: FOCAS = F  SOSCF = T  FULLNR = F  QUD = F  JACOBI = F
 SECULAR EQUATION METHOD CISTEP = ALDET   
 --- GENERAL INPUT OPTIONS:
 MAXIT =      60  MICIT =       5  ACURCY= 1.000E-05
 DAMP  =   0.000  CANONC=       T  ENGTOL= 1.000E-10
 EKT   =       F  NPUNCH=       2  NWORD =         0
 REGENERATE CI AFTER CONVERGENCE = NONE    
 DIABATIZATION AFTER CONVERGENCE =        F
 --- INPUT FOR SOSCF CONVERGER:
 FORS  =       T  NOFO  =       1

          ----------------------
          INTEGRAL INPUT OPTIONS
          ----------------------
 NOPK  =       1 NORDER=       0 SCHWRZ=       T

     ------------------------------------------
     THE POINT GROUP IS CS , NAXIS= 0, ORDER= 2
     ------------------------------------------

     DIMENSIONS OF THE SYMMETRY SUBSPACES ARE
 A'  =   36     A'' =   36

 ..... DONE SETTING UP THE RUN .....
 CPU     0: STEP CPU TIME=     0.03 TOTAL CPU TIME=        0.0 (    0.0 MIN)
 TOTAL WALL CLOCK TIME=        0.0 SECONDS, CPU UTILIZATION IS 100.00%


          -----------------------------
          STATIONARY POINT LOCATION RUN
          -----------------------------

 OBTAINING INITIAL HESSIAN, HESS=READ    

 $HESS GROUP READ FROM CARDS
 ENERGY IS     -154.8388968304 E(NUC) IS      104.7323617001                     

          PARAMETERS CONTROLLING GEOMETRY SEARCH ARE
          METHOD =QA                  UPHESS =POWELL  
          NNEG   =         1          NFRZ   =         0
          NSTEP  =       100          IFOLOW =         1
          HESS   =READ                RESTAR =         F
          IHREP  =         0          HSSEND =         T
          NPRT   =         0          NPUN   =         0
          OPTTOL = 1.000E-04          RMIN   = 1.500E-03
          RMAX   = 1.000E-01          RLIM   = 7.000E-02
          DXMAX  = 2.000E-01          PURIFY =         F
          MOVIE  =         F          TRUPD  =         T
          TRMAX  = 3.000E-01          TRMIN  = 5.000E-02
          ITBMAT =         5          STPT   =         F
          STSTEP = 1.000E-02          PROJCT=          T

 BEGINNING GEOMETRY SEARCH POINT NSERCH=   0 ...

 COORDINATES OF SYMMETRY UNIQUE ATOMS (ANGS)
   ATOM   CHARGE       X              Y              Z
 ------------------------------------------------------------
 CARBON      6.0  -0.8230472220  -0.1202694840   0.7355827600
 CARBON      6.0   0.5171077770   0.0755642700   1.2500000000
 HYDROGEN    1.0  -1.7947621320  -0.2622639400   1.2054774800
 HYDROGEN    1.0   0.4927851020   0.7316338250   2.1140186920
 HYDROGEN    1.0   1.4493620340  -0.4478448770   1.0642836970
 COORDINATES OF ALL ATOMS ARE (ANGS)
   ATOM   CHARGE       X              Y              Z
 ------------------------------------------------------------
 CARBON      6.0  -0.8230472220  -0.1202694840  -0.7355827600
 CARBON      6.0  -0.8230472220  -0.1202694840   0.7355827600
 CARBON      6.0   0.5171077770   0.0755642700  -1.2500000000
 CARBON      6.0   0.5171077770   0.0755642700   1.2500000000
 HYDROGEN    1.0  -1.7947621320  -0.2622639400  -1.2054774800
 HYDROGEN    1.0  -1.7947621320  -0.2622639400   1.2054774800
 HYDROGEN    1.0   0.4927851020   0.7316338250  -2.1140186920
 HYDROGEN    1.0   0.4927851020   0.7316338250   2.1140186920
 HYDROGEN    1.0   1.4493620340  -0.4478448770  -1.0642836970
 HYDROGEN    1.0   1.4493620340  -0.4478448770   1.0642836970

          ********************
          1 ELECTRON INTEGRALS
          ********************
 TIME TO DO   DIPOLE INTEGRALS=      0.01
 ...... END OF ONE-ELECTRON INTEGRALS ......
 CPU     0: STEP CPU TIME=     0.01 TOTAL CPU TIME=        0.0 (    0.0 MIN)
 TOTAL WALL CLOCK TIME=        0.0 SECONDS, CPU UTILIZATION IS 100.00%

          -------------
          GUESS OPTIONS
          -------------
          GUESS =HUCKEL            NORB  =       0          NORDER=       0
          MIX   =       F          PRTMO =       F          PUNMO =       F
          TOLZ  = 1.0E-08          TOLE  = 1.0E-05
          SYMDEN=       F          PURIFY=       F

 INITIAL GUESS ORBITALS GENERATED BY HUCKEL   ROUTINE.
 HUCKEL GUESS REQUIRES     47668 WORDS.

 GUESS=HUCKEL IS USUALLY A VERY BAD IDEA FOR SCFTYP=MCSCF   
 YOU PROBABLY SHOULD USE GUESS=MOREAD FOR THIS RUN!

 SYMMETRIES FOR INITIAL GUESS ORBITALS FOLLOW.   BOTH SET(S).
    15 ORBITALS ARE OCCUPIED (    4 CORE ORBITALS).
     5=A'       6=A''      7=A'       8=A''      9=A'      10=A'      11=A'' 
    12=A'      13=A''     14=A'      15=A''     16=A'      17=A''     18=A'' 
    19=A'      20=A'      21=A''     22=A''     23=A'      24=A'      25=A'  
 ...... END OF INITIAL ORBITAL SELECTION ......
 CPU     0: STEP CPU TIME=     0.01 TOTAL CPU TIME=        0.1 (    0.0 MIN)
 TOTAL WALL CLOCK TIME=        0.1 SECONDS, CPU UTILIZATION IS 100.00%

                    ----------------------
                    AO INTEGRAL TECHNOLOGY
                    ----------------------
     S,P,L SHELL ROTATED AXIS INTEGRALS, REPROGRAMMED BY
        KAZUYA ISHIMURA (IMS) AND JOSE SIERRA (SYNSTAR).
     S,P,D,L SHELL ROTATED AXIS INTEGRALS PROGRAMMED BY
        KAZUYA ISHIMURA (INSTITUTE FOR MOLECULAR SCIENCE).
     S,P,D,F,G SHELL TO TOTAL QUARTET ANGULAR MOMENTUM SUM 5,
        ERIC PROGRAM BY GRAHAM FLETCHER (ELORET AND NASA ADVANCED
        SUPERCOMPUTING DIVISION, AMES RESEARCH CENTER).
     S,P,D,F,G,L SHELL GENERAL RYS QUADRATURE PROGRAMMED BY
        MICHEL DUPUIS (PACIFIC NORTHWEST NATIONAL LABORATORY).

          --------------------
          2 ELECTRON INTEGRALS
          --------------------

 THE -PK- OPTION IS OFF, THE INTEGRALS ARE NOT IN SUPERMATRIX FORM.
 STORING   15000 INTEGRALS/RECORD ON DISK, USING 12 BYTES/INTEGRAL.
 TWO ELECTRON INTEGRAL EVALUATION REQUIRES   90802 WORDS OF MEMORY.
 SCHWARZ INEQUALITY OVERHEAD:      2628 INTEGRALS, T=        0.00
 II,JST,KST,LST =  1  1  1  1 NREC =         1 INTLOC =    1
 II,JST,KST,LST =  2  1  1  1 NREC =         1 INTLOC =    1
 II,JST,KST,LST =  3  1  1  1 NREC =         1 INTLOC =    1
 II,JST,KST,LST =  4  1  1  1 NREC =         1 INTLOC =    1
 II,JST,KST,LST =  5  1  1  1 NREC =         1 INTLOC =    1
 II,JST,KST,LST =  6  1  1  1 NREC =         1 INTLOC =    4
 II,JST,KST,LST =  7  1  1  1 NREC =         1 INTLOC =  305
 II,JST,KST,LST =  8  1  1  1 NREC =         1 INTLOC = 2380
 II,JST,KST,LST =  9  1  1  1 NREC =         2 INTLOC =  183
 II,JST,KST,LST = 10  1  1  1 NREC =         2 INTLOC =  183
 II,JST,KST,LST = 11  1  1  1 NREC =         2 INTLOC =  183
 II,JST,KST,LST = 12  1  1  1 NREC =         2 INTLOC =  183
 II,JST,KST,LST = 13  1  1  1 NREC =         2 INTLOC =  183
 II,JST,KST,LST = 14  1  1  1 NREC =         2 INTLOC =14733
 II,JST,KST,LST = 15  1  1  1 NREC =         9 INTLOC = 8124
 II,JST,KST,LST = 16  1  1  1 NREC =        21 INTLOC = 2293
 II,JST,KST,LST = 17  1  1  1 NREC =        51 INTLOC = 5320
 II,JST,KST,LST = 18  1  1  1 NREC =        51 INTLOC = 5320
 II,JST,KST,LST = 19  1  1  1 NREC =        51 INTLOC = 5320
 II,JST,KST,LST = 20  1  1  1 NREC =        58 INTLOC =11506
 II,JST,KST,LST = 21  1  1  1 NREC =        67 INTLOC = 3821
 II,JST,KST,LST = 22  1  1  1 NREC =        67 INTLOC = 3821
 II,JST,KST,LST = 23  1  1  1 NREC =        67 INTLOC = 3821
 II,JST,KST,LST = 24  1  1  1 NREC =        75 INTLOC = 9219
 II,JST,KST,LST = 25  1  1  1 NREC =        85 INTLOC =10945
 II,JST,KST,LST = 26  1  1  1 NREC =        85 INTLOC =10945
 II,JST,KST,LST = 27  1  1  1 NREC =        85 INTLOC =10945
 II,JST,KST,LST = 28  1  1  1 NREC =        96 INTLOC = 5640
 SCHWARZ INEQUALITY TEST SKIPPED        3035 INTEGRAL BLOCKS.
 TOTAL NUMBER OF NONZERO TWO-ELECTRON INTEGRALS =             1611780
        108 INTEGRAL RECORDS WERE STORED ON DISK FILE  8.
  ...... END OF TWO-ELECTRON INTEGRALS .....
 STEP CPU TIME =     0.14 TOTAL CPU TIME =        0.2 (    0.0 MIN)
 TOTAL WALL CLOCK TIME=        0.2 SECONDS, CPU UTILIZATION IS 100.00%

          -----------------
          MCSCF CALCULATION
          -----------------

 ----- NUCLEAR ENERGY ----- =       104.7323617001

     --------------------------------------------------
          AMES LABORATORY DETERMINANTAL FULL CI
     PROGRAM WRITTEN BY JOE IVANIC AND KLAUS RUEDENBERG
     --------------------------------------------------

 THE POINT GROUP                  =   CS      
 THE STATE SYMMETRY               =   A'      
 NUMBER OF CORE ORBITALS          =   13
 NUMBER OF ACTIVE ORBITALS        =    4
 NUMBER OF ALPHA ELECTRONS        =   15 (   2 ACTIVE)
 NUMBER OF BETA ELECTRONS         =   15 (   2 ACTIVE)
 NUMBER OF OCCUPIED ORBITALS      =   17
 NUMBER OF CI STATES REQUESTED    =    1
 NUMBER OF CI STARTING VECTORS    =    1
 MAX. NO. OF CI EXPANSION VECTORS =   10
 SIZE OF INITIAL CI GUESS MATRIX  =  300
 MAX. NO. OF CI ITERS/STATE       =  100
 CI DIAGONALIZATION CRITERION     = 1.00E-06
 PURE SPIN STATE AVERAGED 1E- AND 2E- DENSITY MATRIX OPTION=.T.
 STATE=   1 DM2 WEIGHT=   1.00000

 CORRELATION ENERGY ANALYSIS      =    F

 SYMMETRIES FOR THE  13 CORE,   4 ACTIVE ARE

     CORE= A'    A''   A'    A''   A'    A''   A'    A''   A'    A'  
           A''   A'    A'' 

   ACTIVE= A'    A''   A'    A'' 
 OPENING FILE DAFL30 WITH      81 LOGICAL RECORDS OF    5184 WORDS
 WITH A MAXIMUM OF         243 PHYSICAL RECORDS OF    2048 WORDS

          ------------------------------
          CASSCF INTEGRAL TRANSFORMATION
          ------------------------------
 AO INTEGRALS WILL BE READ IN FROM DISK...

 NUMBER OF CORE MOLECULAR ORBITALS     =    13
 NUMBER OF OCCUPIED MOLECULAR ORBITALS =    17
 TOTAL NUMBER OF MOLECULAR ORBITALS    =    72
 TOTAL NUMBER OF ATOMIC ORBITALS       =    72
 MEMORY WHICH WOULD BE NEEDED FOR SINGLE PASS TRANSFORMATION =     856288

 ----- CHOOSING THREE STEPS TRANSFORMATION -----
 NUMBER OF WORDS USED      =     295210
 NUMBER OF WORDS AVAILABLE =     999880
 NUMBER OF PASSES          =          4
 PASS #   1 COMPLETED IN         0.0 SECONDS.
 PASS #   2 IS ASSIGNED TO A DIFFERENT PROCESSOR.
 PASS #   3 IS ASSIGNED TO A DIFFERENT PROCESSOR.
 PASS #   4 IS ASSIGNED TO A DIFFERENT PROCESSOR.

 ----- NUCLEAR REPULSION ENERGY =    104.73236170
 ----- FROZEN CORE ENERGY       =   -255.64291371

 ... SYMMETRY ...           CPU =    0.00
 ... (PQ|RS) -> (PQ|KL) ... CPU =    0.04
 ... (PQ|KL) -> (IJ|KL) ... CPU =    0.00

 NUMBER OF (PQ|KL) INTEGRALS WRITTEN      26057
 NUMBER OF (IJ|KL) INTEGRALS WRITTEN         31
 ..... END OF CAS INTEGRAL TRANSFORMATION .....
 CPU     0: STEP CPU TIME=     0.08 TOTAL CPU TIME=        0.3 (    0.0 MIN)
 TOTAL WALL CLOCK TIME=        0.3 SECONDS, CPU UTILIZATION IS 100.00%

     --------------------------------------------------
          AMES LABORATORY DETERMINANTAL FULL CI
     PROGRAM WRITTEN BY JOE IVANIC AND KLAUS RUEDENBERG
     --------------------------------------------------

 THE NUMBER OF DETERMINANTS HAVING SPACE SYMMETRY A' 
 IN POINT GROUP CS   WITH SZ=  0.0 IS             20
 THE DETERMINANT FULL CI REQUIRES          175306 WORDS
 SMALL CI MATRIX, JUST USING INCORE DIAGONALIZATION...

 CI EIGENVECTORS WILL BE LABELED IN GROUP=CS      
 PRINTING ALL NON-ZERO CI COEFFICIENTS

 STATE   1  ENERGY=      -154.4224198578  S=  0.00  SZ=  0.00  SPACE SYM=A'  

ALPHA |BETA  | COEFFICIENT
------|------|------------
 1100 | 1100 |   0.8758276
 1010 | 1010 |  -0.4432486
 1001 | 0110 |  -0.0926269
 0110 | 1001 |  -0.0926269
 0101 | 1010 |  -0.0634381
 1010 | 0101 |  -0.0634381
 0101 | 0101 |  -0.0586640
 1001 | 1001 |  -0.0481170
 0110 | 1100 |  -0.0353263
 1100 | 0110 |  -0.0353263
 0011 | 0011 |   0.0330990
 0011 | 1100 |   0.0291888
 1100 | 0011 |   0.0291888
 0011 | 1001 |  -0.0090367
 1001 | 0011 |  -0.0090367
 0110 | 0110 |  -0.0038967
 0110 | 0011 |  -0.0022446
 0011 | 0110 |  -0.0022446
 1001 | 1100 |  -0.0019645
 1100 | 1001 |  -0.0019645
 ..... DONE WITH DETERMINANT CI COMPUTATION .....
 CPU     0: STEP CPU TIME=     0.00 TOTAL CPU TIME=        0.3 (    0.0 MIN)
 TOTAL WALL CLOCK TIME=        0.3 SECONDS, CPU UTILIZATION IS 100.00%

     --------------------------------------------------
      ONE AND TWO PARTICLE DENSITY MATRIX COMPUTATION
     PROGRAM WRITTEN BY JOE IVANIC AND KLAUS RUEDENBERG
     --------------------------------------------------

      30383 WORDS WILL BE USED TO FORM THE DENSITIES
 THE DENSITIES ARE STATE AVERAGED OVER   1 ROOT(S)
 STATE=   1   ENERGY=     -154.4224198578   WEIGHT= 1.00000   S=  0.00
 SIEVING THE A'   SYMMETRY NONZERO DENSITY ELEMENTS IN GROUP CS      
         31 NONZERO DM2 ELEMENTS WRITTEN IN       1 RECORDS TO FILE 15
 ..... DONE WITH 1 AND 2 PARTICLE DENSITY MATRIX .....
 CPU     0: STEP CPU TIME=     0.00 TOTAL CPU TIME=        0.3 (    0.0 MIN)
 TOTAL WALL CLOCK TIME=        0.3 SECONDS, CPU UTILIZATION IS 100.00%

          --------------------------------------
          APPROXIMATE SECOND-ORDER MCSCF PROGRAM
          --------------------------------------
          PROGRAM WRITTEN BY G.CHABAN, A.MARQUEZ, AND M.DUPUIS

  NUMBER OF WORDS NEEDED     =      88397
  NUMBER AVAILABLE           =     999880

 ----- GAMMA(IJKL)*(PQ|KL) PRODUCTS ----- CPU TIME =      0.001
 ----- ORBITAL SYMMETRY             ----- CPU TIME =      0.001
 ----- FOCK OPERATORS CONSTRUCTION  ----- CPU TIME =      0.010
 ----- WARNING : CORE-ACTIVE GAP    =    0.11175
     MICIT =   1 ASYMM =    0.433145 ROTMAX =    0.153982
 ----- EFFECTIVE FOCK + ROTATE ORBS ----- CPU TIME =      0.004
     MICIT =   2 ASYMM =    0.129466 ROTMAX =    0.064422
     MICIT =   3 ASYMM =    0.140776 ROTMAX =    0.111244
     MICIT =   4 ASYMM =    0.103886 ROTMAX =    0.075266
     MICIT =   5 ASYMM =    0.133181 ROTMAX =    0.060819
 ..... DONE WITH CASSCF ORBITAL UPDATE .....
 CPU     0: STEP CPU TIME=     0.06 TOTAL CPU TIME=        0.3 (    0.0 MIN)
 TOTAL WALL CLOCK TIME=        0.3 SECONDS, CPU UTILIZATION IS 100.00%

 ITER     TOTAL ENERGY      DEL(E)  LAGRANGIAN ASYMMETRY   SQCDF  MICIT   DAMP
   1     -154.422419858 -0.422419858  0.433145   14   12 1.540E-01  5   0.0000
       ----------START APPROXIMATE SECOND ORDER MCSCF----------
   2     -154.731845449 -0.309425591  0.098182   40    3 2.847E-01  1   0.0000
   3     -154.803264967 -0.071419519  0.083470   16    3 2.674E-01  1   0.0000
   4     -154.818853414 -0.015588447  0.051137   36   12 5.022E-02  1   0.0000
   5     -154.834065306 -0.015211892  0.024652   44    3 3.371E-02  1   0.0000
   6     -154.836853310 -0.002788003  0.018797   16    3 6.480E-03  1   0.0000
   7     -154.838244673 -0.001391364  0.009420   16    3 5.089E-03  1   0.0000
   8     -154.838375502 -0.000130829  0.008387   16    3 1.544E-03  1   0.0000
   9     -154.838777794 -0.000402292  0.005339   16    3 9.303E-04  1   0.0000
  10     -154.838812788 -0.000034994  0.004647   14    1 2.100E-04  1   0.0000
  11     -154.838880910 -0.000068122  0.001096   16    3 5.603E-05  1   0.0000
  12     -154.838888176 -0.000007266  0.001202   16    3 1.649E-05  1   0.0000
  13     -154.838894164 -0.000005988  0.000731   16    3 1.322E-05  1   0.0000
  14     -154.838895644 -0.000001480  0.000280   14    1 1.949E-06  1   0.0000
  15     -154.838896307 -0.000000663  0.000184   23    3 2.520E-06  1   0.0000
  16     -154.838896559 -0.000000253  0.000311   16    3 5.871E-07  1   0.0000
  17     -154.838896751 -0.000000192  0.000153   16    3 3.335E-07  1   0.0000
  18     -154.838896792 -0.000000041  0.000043   14    3 7.821E-08  1   0.0000
  19     -154.838896818 -0.000000026  0.000024   25    3 5.759E-08  1   0.0000
  20     -154.838896826 -0.000000008  0.000027   16    3 8.737E-09  1   0.0000
  21     -154.838896829 -0.000000003  0.000015   16    3 6.744E-09  1   0.0000
  22     -154.838896830 -0.000000001  0.000006   27    3 1.591E-09  1   0.0000

          --------------------
          LAGRANGIAN CONVERGED
          --------------------

 FINAL MCSCF ENERGY IS     -154.8388968304 AFTER  22 ITERATIONS

 -MCCI- BASED ON OPTIMIZED ORBITALS
 ----------------------------------

 PLEASE NOTE: IF THE ACTIVE ORBITALS ARE CANONICALIZED BELOW,
 THE FOLLOWING CI EXPANSION COEFFICIENTS AND THE DENSITY DO NOT
 CORRESPOND TO THE PRINTED ORBITALS.  THE PRINTED EXPANSIONS MATCH
 THE ORBITALS USED DURING THE LAST ITERATION.  IF YOU WISH TO SEE
 CI EXPANSIONS BASED ON THE CANONICAL (OR NATURAL) ORBITALS, YOU
 MUST RUN A CI CALCULATION WITH THAT ORBITAL CHOICE READ IN $VEC.

 CI EIGENVECTORS WILL BE LABELED IN GROUP=CS      
 PRINTING ALL NON-ZERO CI COEFFICIENTS

 STATE   1  ENERGY=      -154.8388968304  S=  0.00  SZ=  0.00  SPACE SYM=A'  

ALPHA |BETA  | COEFFICIENT
------|------|------------
 1100 | 1100 |   0.7861678
 1010 | 1010 |  -0.5215555
 1001 | 0110 |  -0.1688485
 0110 | 1001 |  -0.1688485
 0101 | 0101 |  -0.1140923
 1010 | 0101 |  -0.0937089
 0101 | 1010 |  -0.0937089
 0011 | 0011 |   0.0924518
 0011 | 1100 |   0.0751396
 1100 | 0011 |   0.0751396
 0110 | 0110 |  -0.0285240
 1001 | 1001 |  -0.0268944
 0110 | 1100 |  -0.0176899
 1100 | 0110 |  -0.0176899
 1100 | 1001 |   0.0124710
 1001 | 1100 |   0.0124710
 1001 | 0011 |   0.0016513
 0011 | 1001 |   0.0016513
 0011 | 0110 |  -0.0010332
 0110 | 0011 |  -0.0010332

 DENSITY MATRIX OVER ACTIVE MO-S

             1           2           3           4

    1    1.8687342
    2    0.0000000   1.3512200
    3    0.0336115   0.0000000   0.6492721
    4    0.0000000   0.0285079   0.0000000   0.1307737
    13 FILLED,    4 ACTIVE, AND   55 VIRTUAL ORBITALS  WILL BE CANONICALIZED

          ----------------------
          MCSCF NATURAL ORBITALS
          ----------------------

                      1          2          3          4          5
                  -12.8311   -12.8304   -12.7223   -12.7223    -2.4538
                     A'         A''        A''        A'         A'  
    1  C  1  S    0.704150   0.704414  -0.002540  -0.002461  -0.132508
    2  C  1  S    0.018835   0.018956   0.000070  -0.000099   0.256612
    3  C  1  X    0.000312   0.000386  -0.000094  -0.000090   0.095308
    4  C  1  Y   -0.000096   0.000053  -0.000021  -0.000220  -0.019138
    5  C  1  Z    0.000082   0.000268   0.000061   0.000063   0.111649
    6  C  1  S   -0.006146  -0.012632   0.002900   0.002027   0.189871
    7  C  1  X   -0.000380  -0.001553   0.001200   0.000680   0.027898
    8  C  1  Y   -0.000190  -0.000284  -0.000141  -0.000084  -0.021256
    9  C  1  Z    0.000519  -0.001969  -0.000438  -0.000399   0.033611
   10  C  1 XX   -0.001315  -0.000981  -0.000368  -0.000328   0.005883
   11  C  1 YY   -0.001649  -0.001434  -0.000054  -0.000090  -0.010829
   12  C  1 ZZ   -0.001655  -0.000881  -0.000243  -0.000097   0.013987
   13  C  1 XY    0.000052   0.000071  -0.000083  -0.000061   0.002312
   14  C  1 XZ   -0.000024  -0.000046   0.000094   0.000144  -0.001101
   15  C  1 YZ   -0.000023   0.000008   0.000050   0.000068  -0.001857
   16  C  2  S    0.704150  -0.704414   0.002540  -0.002461  -0.132508
   17  C  2  S    0.018835  -0.018956  -0.000070  -0.000099   0.256612
   18  C  2  X    0.000312  -0.000386   0.000094  -0.000090   0.095308
   19  C  2  Y   -0.000096  -0.000053   0.000021  -0.000220  -0.019138
   20  C  2  Z   -0.000082   0.000268   0.000061  -0.000063  -0.111649
   21  C  2  S   -0.006146   0.012632  -0.002900   0.002027   0.189871
   22  C  2  X   -0.000380   0.001553  -0.001200   0.000680   0.027898
   23  C  2  Y   -0.000190   0.000284   0.000141  -0.000084  -0.021256
   24  C  2  Z   -0.000519  -0.001969  -0.000438   0.000399  -0.033611
   25  C  2 XX   -0.001315   0.000981   0.000368  -0.000328   0.005883
   26  C  2 YY   -0.001649   0.001434   0.000054  -0.000090  -0.010829
   27  C  2 ZZ   -0.001655   0.000881   0.000243  -0.000097   0.013987
   28  C  2 XY    0.000052  -0.000071   0.000083  -0.000061   0.002312
   29  C  2 XZ    0.000024  -0.000046   0.000094  -0.000144   0.001101
   30  C  2 YZ    0.000023   0.000008   0.000050  -0.000068   0.001857
   31  C  3  S    0.002235   0.002313   0.704314   0.704210  -0.067881
   32  C  3  S   -0.000036   0.000081   0.019315   0.018818   0.128795
   33  C  3  X    0.000266   0.000170  -0.000327  -0.000359  -0.092664
   34  C  3  Y    0.000007   0.000003  -0.000166  -0.000287  -0.029585
   35  C  3  Z   -0.000099  -0.000136   0.000211   0.000079   0.050857
   36  C  3  S    0.001889   0.003151  -0.009659  -0.007278   0.085095
   37  C  3  X   -0.000941  -0.001291   0.000312   0.000374  -0.021518
   38  C  3  Y   -0.000152  -0.000262   0.000250  -0.000037  -0.015604
   39  C  3  Z    0.000319   0.000832  -0.000947   0.000238   0.006113
   40  C  3 XX   -0.000353  -0.000410  -0.001189  -0.001314   0.009386
   41  C  3 YY   -0.000053  -0.000053  -0.001389  -0.001641  -0.003745
   42  C  3 ZZ   -0.000112  -0.000230  -0.001523  -0.001484   0.000556
   43  C  3 XY   -0.000038  -0.000068  -0.000038  -0.000061   0.002094
   44  C  3 XZ    0.000078   0.000113  -0.000083  -0.000077  -0.008347
   45  C  3 YZ    0.000010   0.000012  -0.000138  -0.000122  -0.003725
   46  C  4  S    0.002235  -0.002313  -0.704314   0.704210  -0.067881
   47  C  4  S   -0.000036  -0.000081  -0.019315   0.018818   0.128795
   48  C  4  X    0.000266  -0.000170   0.000327  -0.000359  -0.092664
   49  C  4  Y    0.000007  -0.000003   0.000166  -0.000287  -0.029585
   50  C  4  Z    0.000099  -0.000136   0.000211  -0.000079  -0.050857
   51  C  4  S    0.001889  -0.003151   0.009659  -0.007278   0.085095
   52  C  4  X   -0.000941   0.001291  -0.000312   0.000374  -0.021518
   53  C  4  Y   -0.000152   0.000262  -0.000250  -0.000037  -0.015604
   54  C  4  Z   -0.000319   0.000832  -0.000947  -0.000238  -0.006113
   55  C  4 XX   -0.000353   0.000410   0.001189  -0.001314   0.009386
   56  C  4 YY   -0.000053   0.000053   0.001389  -0.001641  -0.003745
   57  C  4 ZZ   -0.000112   0.000230   0.001523  -0.001484   0.000556
   58  C  4 XY   -0.000038   0.000068   0.000038  -0.000061   0.002094
   59  C  4 XZ   -0.000078   0.000113  -0.000083   0.000077   0.008347
   60  C  4 YZ   -0.000010   0.000012  -0.000138   0.000122   0.003725
   61  H  5  S   -0.000548  -0.000516  -0.000040  -0.000080   0.022120
   62  H  5  S    0.001046   0.000803  -0.000128  -0.000084  -0.020872
   63  H  6  S   -0.000548   0.000516   0.000040  -0.000080   0.022120
   64  H  6  S    0.001046  -0.000803   0.000128  -0.000084  -0.020872
   65  H  7  S   -0.000063  -0.000059  -0.000333  -0.000331   0.015939
   66  H  7  S    0.000201   0.000227   0.001170   0.001314  -0.002496
   67  H  8  S   -0.000063   0.000059   0.000333  -0.000331   0.015939
   68  H  8  S    0.000201  -0.000227  -0.001170   0.001314  -0.002496
   69  H  9  S   -0.000059  -0.000127  -0.000293  -0.000423   0.016366
   70  H  9  S    0.000089   0.000133   0.001738   0.001090  -0.009568
   71  H 10  S   -0.000059   0.000127   0.000293  -0.000423   0.016366
   72  H 10  S    0.000089  -0.000133  -0.001738   0.001090  -0.009568

                      6          7          8          9         10
                   -2.2437    -2.0966    -1.8405    -1.8211    -1.8026
                     A''        A'         A''        A'         A'  
    1  C  1  S   -0.093556  -0.053539   0.075296   0.034399   0.004946
    2  C  1  S    0.187523   0.106240  -0.153345  -0.064249  -0.010718
    3  C  1  X    0.137950  -0.177645   0.080101   0.135463  -0.185364
    4  C  1  Y    0.010638  -0.030967   0.005033  -0.015712  -0.028942
    5  C  1  Z   -0.100270   0.238587   0.089549   0.254088   0.057755
    6  C  1  S    0.157534   0.110005  -0.154615  -0.059539  -0.010663
    7  C  1  X    0.037560  -0.060107   0.060837   0.056996  -0.087418
    8  C  1  Y   -0.002967  -0.017041   0.006842  -0.011775  -0.008832
    9  C  1  Z   -0.027806   0.094152   0.041320   0.116463   0.026420
   10  C  1 XX    0.017087  -0.010000  -0.011970  -0.017258   0.000261
   11  C  1 YY   -0.006046  -0.003738   0.004258   0.002601  -0.000053
   12  C  1 ZZ   -0.008067   0.017600   0.004252   0.006917   0.003353
   13  C  1 XY    0.003130  -0.000478  -0.003017  -0.004701  -0.000902
   14  C  1 XZ   -0.009732   0.006015  -0.010197  -0.004248   0.003179
   15  C  1 YZ   -0.000120  -0.001115  -0.001061  -0.001731   0.000031
   16  C  2  S    0.093556  -0.053539  -0.075296   0.034399   0.004946
   17  C  2  S   -0.187523   0.106240   0.153345  -0.064249  -0.010718
   18  C  2  X   -0.137950  -0.177645  -0.080101   0.135463  -0.185364
   19  C  2  Y   -0.010638  -0.030967  -0.005033  -0.015712  -0.028942
   20  C  2  Z   -0.100270  -0.238587   0.089549  -0.254088  -0.057755
   21  C  2  S   -0.157534   0.110005   0.154615  -0.059539  -0.010663
   22  C  2  X   -0.037560  -0.060107  -0.060837   0.056996  -0.087418
   23  C  2  Y    0.002967  -0.017041  -0.006842  -0.011775  -0.008832
   24  C  2  Z   -0.027806  -0.094152   0.041320  -0.116463  -0.026420
   25  C  2 XX   -0.017087  -0.010000   0.011970  -0.017258   0.000261
   26  C  2 YY    0.006046  -0.003738  -0.004258   0.002601  -0.000053
   27  C  2 ZZ    0.008067   0.017600  -0.004252   0.006917   0.003353
   28  C  2 XY   -0.003130  -0.000478   0.003017  -0.004701  -0.000902
   29  C  2 XZ   -0.009732  -0.006015  -0.010197   0.004248  -0.003179
   30  C  2 YZ   -0.000120   0.001115  -0.001061   0.001731  -0.000031
   31  C  3  S   -0.112932   0.100522  -0.079389   0.001935  -0.052714
   32  C  3  S    0.219183  -0.197077   0.154199  -0.005397   0.099942
   33  C  3  X   -0.141311   0.058774   0.164204   0.104685   0.250494
   34  C  3  Y   -0.035882   0.025323  -0.011189  -0.073623  -0.009348
   35  C  3  Z    0.040094  -0.010185  -0.044912   0.099145  -0.073060
   36  C  3  S    0.199076  -0.187115   0.152665  -0.014832   0.112739
   37  C  3  X   -0.047148   0.025383   0.072708   0.043362   0.104546
   38  C  3  Y   -0.020360   0.018995  -0.007123  -0.034664  -0.006866
   39  C  3  Z    0.017315  -0.013790  -0.025887   0.034354  -0.021649
   40  C  3 XX    0.015326  -0.010439   0.002927   0.001708   0.003231
   41  C  3 YY   -0.003522   0.001572   0.002915  -0.001015   0.004159
   42  C  3 ZZ   -0.003260   0.001231   0.003462  -0.000563   0.002234
   43  C  3 XY    0.000589   0.003428  -0.011555  -0.005066  -0.013577
   44  C  3 XZ   -0.006036  -0.001829   0.004422  -0.002705   0.009384
   45  C  3 YZ   -0.006148   0.006400  -0.009476   0.002596  -0.008502
   46  C  4  S    0.112932   0.100522   0.079389   0.001935  -0.052714
   47  C  4  S   -0.219183  -0.197077  -0.154199  -0.005397   0.099942
   48  C  4  X    0.141311   0.058774  -0.164204   0.104685   0.250494
   49  C  4  Y    0.035882   0.025323   0.011189  -0.073623  -0.009348
   50  C  4  Z    0.040094   0.010185  -0.044912  -0.099145   0.073060
   51  C  4  S   -0.199076  -0.187115  -0.152665  -0.014832   0.112739
   52  C  4  X    0.047148   0.025383  -0.072708   0.043362   0.104546
   53  C  4  Y    0.020360   0.018995   0.007123  -0.034664  -0.006866
   54  C  4  Z    0.017315   0.013790  -0.025887  -0.034354   0.021649
   55  C  4 XX   -0.015326  -0.010439  -0.002927   0.001708   0.003231
   56  C  4 YY    0.003522   0.001572  -0.002915  -0.001015   0.004159
   57  C  4 ZZ    0.003260   0.001231  -0.003462  -0.000563   0.002234
   58  C  4 XY   -0.000589   0.003428   0.011555  -0.005066  -0.013577
   59  C  4 XZ   -0.006036   0.001829   0.004422   0.002705  -0.009384
   60  C  4 YZ   -0.006148  -0.006400  -0.009476  -0.002596   0.008502
   61  H  5  S    0.026070   0.055618  -0.133459  -0.170474   0.072798
   62  H  5  S   -0.014645   0.004668  -0.064438  -0.119985   0.041101
   63  H  6  S   -0.026070   0.055618   0.133459  -0.170474   0.072798
   64  H  6  S    0.014645   0.004668   0.064438  -0.119985   0.041101
   65  H  7  S    0.043336  -0.053034   0.082479  -0.067397   0.076489
   66  H  7  S   -0.009902  -0.000353   0.039648  -0.034918   0.053279
   67  H  8  S   -0.043336  -0.053034  -0.082479  -0.067397   0.076489
   68  H  8  S    0.009902  -0.000353  -0.039648  -0.034918   0.053279
   69  H  9  S    0.035277  -0.062563   0.143175   0.080292   0.169190
   70  H  9  S   -0.004975  -0.017869   0.074542   0.052606   0.106616
   71  H 10  S   -0.035277  -0.062563  -0.143175   0.080292   0.169190
   72  H 10  S    0.004975  -0.017869  -0.074542   0.052606   0.106616

                     11         12         13         14         15
                   -1.7143    -1.6449    -1.6438     1.8697     1.3519
                     A''        A'         A''        A'         A'' 
    1  C  1  S    0.024636  -0.010833   0.019345  -0.003210  -0.014909
    2  C  1  S   -0.043875   0.021912  -0.041995   0.006504   0.030114
    3  C  1  X    0.263270  -0.032285  -0.005926  -0.035005  -0.019362
    4  C  1  Y    0.030284  -0.006539   0.031583   0.314808   0.222711
    5  C  1  Z    0.039477  -0.183672   0.004187   0.009035   0.034032
    6  C  1  S   -0.052617   0.019967  -0.055407  -0.012369   0.099508
    7  C  1  X    0.140074  -0.023004   0.010964  -0.032464  -0.035549
    8  C  1  Y    0.008858   0.019905   0.005477   0.235017   0.205931
    9  C  1  Z    0.024686  -0.110387   0.013836  -0.005685   0.051315
   10  C  1 XX   -0.008085   0.016273  -0.006752   0.002859   0.005321
   11  C  1 YY    0.002800  -0.001967   0.001661   0.002239   0.003979
   12  C  1 ZZ   -0.001387  -0.010725   0.005399  -0.005238  -0.010415
   13  C  1 XY   -0.001562  -0.001835   0.003742   0.006798   0.009161
   14  C  1 XZ   -0.022089   0.008870  -0.004026   0.004208   0.007029
   15  C  1 YZ   -0.002416   0.003925  -0.004193   0.011742  -0.009439
   16  C  2  S   -0.024636  -0.010833  -0.019345  -0.003210   0.014909
   17  C  2  S    0.043875   0.021912   0.041995   0.006504  -0.030114
   18  C  2  X   -0.263270  -0.032285   0.005926  -0.035005   0.019362
   19  C  2  Y   -0.030284  -0.006539  -0.031583   0.314808  -0.222711
   20  C  2  Z    0.039477   0.183672   0.004187  -0.009035   0.034032
   21  C  2  S    0.052617   0.019967   0.055407  -0.012369  -0.099508
   22  C  2  X   -0.140074  -0.023004  -0.010964  -0.032464   0.035549
   23  C  2  Y   -0.008858   0.019905  -0.005477   0.235017  -0.205931
   24  C  2  Z    0.024686   0.110387   0.013836   0.005685   0.051315
   25  C  2 XX    0.008085   0.016273   0.006752   0.002859  -0.005321
   26  C  2 YY   -0.002800  -0.001967  -0.001661   0.002239  -0.003979
   27  C  2 ZZ    0.001387  -0.010725  -0.005399  -0.005238   0.010415
   28  C  2 XY    0.001562  -0.001835  -0.003742   0.006798  -0.009161
   29  C  2 XZ   -0.022089  -0.008870  -0.004026  -0.004208   0.007029
   30  C  2 YZ   -0.002416  -0.003925  -0.004193  -0.011742  -0.009439
   31  C  3  S    0.015222   0.019144  -0.001452  -0.008902  -0.021402
   32  C  3  S   -0.026859  -0.034255   0.002992   0.018453   0.048143
   33  C  3  X   -0.199143   0.024089  -0.105739   0.031544   0.067740
   34  C  3  Y   -0.027759  -0.176791   0.212183   0.144092   0.251819
   35  C  3  Z    0.103317   0.199696  -0.206905   0.134880   0.246683
   36  C  3  S   -0.025450  -0.033484  -0.023336   0.025457   0.086892
   37  C  3  X   -0.098383   0.009919  -0.057468   0.025547   0.065371
   38  C  3  Y   -0.011969  -0.085927   0.108815   0.108043   0.221574
   39  C  3  Z    0.041974   0.120403  -0.123913   0.100492   0.220026
   40  C  3 XX    0.000467   0.016378  -0.018568   0.003397   0.006032
   41  C  3 YY   -0.004093  -0.003801   0.003126  -0.003726  -0.001481
   42  C  3 ZZ   -0.004239  -0.016666   0.018387  -0.000079  -0.005389
   43  C  3 XY    0.008456  -0.004023   0.007788  -0.011790  -0.010023
   44  C  3 XZ   -0.008006   0.004575  -0.001323  -0.000807  -0.001554
   45  C  3 YZ    0.006280   0.013979  -0.012793   0.007900   0.005122
   46  C  4  S   -0.015222   0.019144   0.001452  -0.008902   0.021402
   47  C  4  S    0.026859  -0.034255  -0.002992   0.018453  -0.048143
   48  C  4  X    0.199143   0.024089   0.105739   0.031544  -0.067740
   49  C  4  Y    0.027759  -0.176791  -0.212183   0.144092  -0.251819
   50  C  4  Z    0.103317  -0.199696  -0.206905  -0.134880   0.246683
   51  C  4  S    0.025450  -0.033484   0.023336   0.025457  -0.086892
   52  C  4  X    0.098383   0.009919   0.057468   0.025547  -0.065371
   53  C  4  Y    0.011969  -0.085927  -0.108815   0.108043  -0.221574
   54  C  4  Z    0.041974  -0.120403  -0.123913  -0.100492   0.220026
   55  C  4 XX   -0.000467   0.016378   0.018568   0.003397  -0.006032
   56  C  4 YY    0.004093  -0.003801  -0.003126  -0.003726   0.001481
   57  C  4 ZZ    0.004239  -0.016666  -0.018387  -0.000079   0.005389
   58  C  4 XY   -0.008456  -0.004023  -0.007788  -0.011790   0.010023
   59  C  4 XZ   -0.008006  -0.004575  -0.001323   0.000807  -0.001554
   60  C  4 YZ    0.006280  -0.013979  -0.012793  -0.007900   0.005122
   61  H  5  S   -0.187301   0.097525  -0.025451   0.010144   0.015513
   62  H  5  S   -0.137177   0.085044  -0.010011   0.023429   0.018024
   63  H  6  S    0.187301   0.097525   0.025451   0.010144  -0.015513
   64  H  6  S    0.137177   0.085044   0.010011   0.023429  -0.018024
   65  H  7  S   -0.076018  -0.193984   0.194091  -0.024102  -0.030376
   66  H  7  S   -0.063174  -0.154982   0.153737  -0.047644  -0.057008
   67  H  8  S    0.076018  -0.193984  -0.194091  -0.024102   0.030376
   68  H  8  S    0.063174  -0.154982  -0.153737  -0.047644   0.057008
   69  H  9  S   -0.095632   0.090763  -0.150270   0.015517   0.024422
   70  H  9  S   -0.064191   0.084155  -0.116225   0.028219   0.024082
   71  H 10  S    0.095632   0.090763   0.150270   0.015517  -0.024422
   72  H 10  S    0.064191   0.084155   0.116225   0.028219  -0.024082

                     16         17
                    0.6483     0.1301
                     A'         A'' 
    1  C  1  S    0.017153  -0.010916
    2  C  1  S   -0.038685   0.026285
    3  C  1  X    0.001491  -0.039883
    4  C  1  Y   -0.240125   0.464720
    5  C  1  Z   -0.045201   0.025205
    6  C  1  S   -0.071579   0.189543
    7  C  1  X    0.000085   0.003357
    8  C  1  Y   -0.221525   0.410704
    9  C  1  Z   -0.035960   0.098055
   10  C  1 XX    0.009207  -0.004467
   11  C  1 YY   -0.000884   0.007255
   12  C  1 ZZ   -0.006087  -0.004119
   13  C  1 XY    0.010541  -0.004038
   14  C  1 XZ    0.009395  -0.001433
   15  C  1 YZ   -0.010304  -0.007189
   16  C  2  S    0.017153   0.010916
   17  C  2  S   -0.038685  -0.026285
   18  C  2  X    0.001491   0.039883
   19  C  2  Y   -0.240125  -0.464720
   20  C  2  Z    0.045201   0.025205
   21  C  2  S   -0.071579  -0.189543
   22  C  2  X    0.000085  -0.003357
   23  C  2  Y   -0.221525  -0.410704
   24  C  2  Z    0.035960   0.098055
   25  C  2 XX    0.009207   0.004467
   26  C  2 YY   -0.000884  -0.007255
   27  C  2 ZZ   -0.006087   0.004119
   28  C  2 XY    0.010541   0.004038
   29  C  2 XZ   -0.009395  -0.001433
   30  C  2 YZ    0.010304  -0.007189
   31  C  3  S   -0.013078   0.017315
   32  C  3  S    0.033806  -0.041674
   33  C  3  X    0.053274  -0.043584
   34  C  3  Y    0.283318  -0.236877
   35  C  3  Z    0.228509  -0.196183
   36  C  3  S    0.082302  -0.125906
   37  C  3  X    0.040891   0.000788
   38  C  3  Y    0.257198  -0.190530
   39  C  3  Z    0.195897  -0.152899
   40  C  3 XX   -0.008593   0.009008
   41  C  3 YY    0.003642  -0.005282
   42  C  3 ZZ    0.002217  -0.001807
   43  C  3 XY    0.008422  -0.013063
   44  C  3 XZ    0.002495  -0.002693
   45  C  3 YZ    0.000936  -0.004520
   46  C  4  S   -0.013078  -0.017315
   47  C  4  S    0.033806   0.041674
   48  C  4  X    0.053274   0.043584
   49  C  4  Y    0.283318   0.236877
   50  C  4  Z   -0.228509  -0.196183
   51  C  4  S    0.082302   0.125906
   52  C  4  X    0.040891  -0.000788
   53  C  4  Y    0.257198   0.190530
   54  C  4  Z   -0.195897  -0.152899
   55  C  4 XX   -0.008593  -0.009008
   56  C  4 YY    0.003642   0.005282
   57  C  4 ZZ    0.002217   0.001807
   58  C  4 XY    0.008422   0.013063
   59  C  4 XZ   -0.002495  -0.002693
   60  C  4 YZ   -0.000936  -0.004520
   61  H  5  S    0.040623  -0.016195
   62  H  5  S    0.062588  -0.004796
   63  H  6  S    0.040623   0.016195
   64  H  6  S    0.062588   0.004796
   65  H  7  S    0.011468  -0.015838
   66  H  7  S    0.012071  -0.020511
   67  H  8  S    0.011468   0.015838
   68  H  8  S    0.012071   0.020511
   69  H  9  S   -0.043740   0.034938
   70  H  9  S   -0.064186   0.042124
   71  H 10  S   -0.043740  -0.034938
   72  H 10  S   -0.064186  -0.042124

          ------------------------
          MCSCF OPTIMIZED ORBITALS
          ------------------------

                      1          2          3          4          5
                  -12.8311   -12.8304   -12.7223   -12.7223    -2.4538
                     A'         A''        A''        A'         A'  
    1  C  1  S    0.704150   0.704414  -0.002540  -0.002461  -0.132508
    2  C  1  S    0.018835   0.018956   0.000070  -0.000099   0.256612
    3  C  1  X    0.000312   0.000386  -0.000094  -0.000090   0.095308
    4  C  1  Y   -0.000096   0.000053  -0.000021  -0.000220  -0.019138
    5  C  1  Z    0.000082   0.000268   0.000061   0.000063   0.111649
    6  C  1  S   -0.006146  -0.012632   0.002900   0.002027   0.189871
    7  C  1  X   -0.000380  -0.001553   0.001200   0.000680   0.027898
    8  C  1  Y   -0.000190  -0.000284  -0.000141  -0.000084  -0.021256
    9  C  1  Z    0.000519  -0.001969  -0.000438  -0.000399   0.033611
   10  C  1 XX   -0.001315  -0.000981  -0.000368  -0.000328   0.005883
   11  C  1 YY   -0.001649  -0.001434  -0.000054  -0.000090  -0.010829
   12  C  1 ZZ   -0.001655  -0.000881  -0.000243  -0.000097   0.013987
   13  C  1 XY    0.000052   0.000071  -0.000083  -0.000061   0.002312
   14  C  1 XZ   -0.000024  -0.000046   0.000094   0.000144  -0.001101
   15  C  1 YZ   -0.000023   0.000008   0.000050   0.000068  -0.001857
   16  C  2  S    0.704150  -0.704414   0.002540  -0.002461  -0.132508
   17  C  2  S    0.018835  -0.018956  -0.000070  -0.000099   0.256612
   18  C  2  X    0.000312  -0.000386   0.000094  -0.000090   0.095308
   19  C  2  Y   -0.000096  -0.000053   0.000021  -0.000220  -0.019138
   20  C  2  Z   -0.000082   0.000268   0.000061  -0.000063  -0.111649
   21  C  2  S   -0.006146   0.012632  -0.002900   0.002027   0.189871
   22  C  2  X   -0.000380   0.001553  -0.001200   0.000680   0.027898
   23  C  2  Y   -0.000190   0.000284   0.000141  -0.000084  -0.021256
   24  C  2  Z   -0.000519  -0.001969  -0.000438   0.000399  -0.033611
   25  C  2 XX   -0.001315   0.000981   0.000368  -0.000328   0.005883
   26  C  2 YY   -0.001649   0.001434   0.000054  -0.000090  -0.010829
   27  C  2 ZZ   -0.001655   0.000881   0.000243  -0.000097   0.013987
   28  C  2 XY    0.000052  -0.000071   0.000083  -0.000061   0.002312
   29  C  2 XZ    0.000024  -0.000046   0.000094  -0.000144   0.001101
   30  C  2 YZ    0.000023   0.000008   0.000050  -0.000068   0.001857
   31  C  3  S    0.002235   0.002313   0.704314   0.704210  -0.067881
   32  C  3  S   -0.000036   0.000081   0.019315   0.018818   0.128795
   33  C  3  X    0.000266   0.000170  -0.000327  -0.000359  -0.092664
   34  C  3  Y    0.000007   0.000003  -0.000166  -0.000287  -0.029585
   35  C  3  Z   -0.000099  -0.000136   0.000211   0.000079   0.050857
   36  C  3  S    0.001889   0.003151  -0.009659  -0.007278   0.085095
   37  C  3  X   -0.000941  -0.001291   0.000312   0.000374  -0.021518
   38  C  3  Y   -0.000152  -0.000262   0.000250  -0.000037  -0.015604
   39  C  3  Z    0.000319   0.000832  -0.000947   0.000238   0.006113
   40  C  3 XX   -0.000353  -0.000410  -0.001189  -0.001314   0.009386
   41  C  3 YY   -0.000053  -0.000053  -0.001389  -0.001641  -0.003745
   42  C  3 ZZ   -0.000112  -0.000230  -0.001523  -0.001484   0.000556
   43  C  3 XY   -0.000038  -0.000068  -0.000038  -0.000061   0.002094
   44  C  3 XZ    0.000078   0.000113  -0.000083  -0.000077  -0.008347
   45  C  3 YZ    0.000010   0.000012  -0.000138  -0.000122  -0.003725
   46  C  4  S    0.002235  -0.002313  -0.704314   0.704210  -0.067881
   47  C  4  S   -0.000036  -0.000081  -0.019315   0.018818   0.128795
   48  C  4  X    0.000266  -0.000170   0.000327  -0.000359  -0.092664
   49  C  4  Y    0.000007  -0.000003   0.000166  -0.000287  -0.029585
   50  C  4  Z    0.000099  -0.000136   0.000211  -0.000079  -0.050857
   51  C  4  S    0.001889  -0.003151   0.009659  -0.007278   0.085095
   52  C  4  X   -0.000941   0.001291  -0.000312   0.000374  -0.021518
   53  C  4  Y   -0.000152   0.000262  -0.000250  -0.000037  -0.015604
   54  C  4  Z   -0.000319   0.000832  -0.000947  -0.000238  -0.006113
   55  C  4 XX   -0.000353   0.000410   0.001189  -0.001314   0.009386
   56  C  4 YY   -0.000053   0.000053   0.001389  -0.001641  -0.003745
   57  C  4 ZZ   -0.000112   0.000230   0.001523  -0.001484   0.000556
   58  C  4 XY   -0.000038   0.000068   0.000038  -0.000061   0.002094
   59  C  4 XZ   -0.000078   0.000113  -0.000083   0.000077   0.008347
   60  C  4 YZ   -0.000010   0.000012  -0.000138   0.000122   0.003725
   61  H  5  S   -0.000548  -0.000516  -0.000040  -0.000080   0.022120
   62  H  5  S    0.001046   0.000803  -0.000128  -0.000084  -0.020872
   63  H  6  S   -0.000548   0.000516   0.000040  -0.000080   0.022120
   64  H  6  S    0.001046  -0.000803   0.000128  -0.000084  -0.020872
   65  H  7  S   -0.000063  -0.000059  -0.000333  -0.000331   0.015939
   66  H  7  S    0.000201   0.000227   0.001170   0.001314  -0.002496
   67  H  8  S   -0.000063   0.000059   0.000333  -0.000331   0.015939
   68  H  8  S    0.000201  -0.000227  -0.001170   0.001314  -0.002496
   69  H  9  S   -0.000059  -0.000127  -0.000293  -0.000423   0.016366
   70  H  9  S    0.000089   0.000133   0.001738   0.001090  -0.009568
   71  H 10  S   -0.000059   0.000127   0.000293  -0.000423   0.016366
   72  H 10  S    0.000089  -0.000133  -0.001738   0.001090  -0.009568

                      6          7          8          9         10
                   -2.2437    -2.0966    -1.8405    -1.8211    -1.8026
                     A''        A'         A''        A'         A'  
    1  C  1  S   -0.093556  -0.053539   0.075296   0.034399   0.004946
    2  C  1  S    0.187523   0.106240  -0.153345  -0.064249  -0.010718
    3  C  1  X    0.137950  -0.177645   0.080101   0.135463  -0.185364
    4  C  1  Y    0.010638  -0.030967   0.005033  -0.015712  -0.028942
    5  C  1  Z   -0.100270   0.238587   0.089549   0.254088   0.057755
    6  C  1  S    0.157534   0.110005  -0.154615  -0.059539  -0.010663
    7  C  1  X    0.037560  -0.060107   0.060837   0.056996  -0.087418
    8  C  1  Y   -0.002967  -0.017041   0.006842  -0.011775  -0.008832
    9  C  1  Z   -0.027806   0.094152   0.041320   0.116463   0.026420
   10  C  1 XX    0.017087  -0.010000  -0.011970  -0.017258   0.000261
   11  C  1 YY   -0.006046  -0.003738   0.004258   0.002601  -0.000053
   12  C  1 ZZ   -0.008067   0.017600   0.004252   0.006917   0.003353
   13  C  1 XY    0.003130  -0.000478  -0.003017  -0.004701  -0.000902
   14  C  1 XZ   -0.009732   0.006015  -0.010197  -0.004248   0.003179
   15  C  1 YZ   -0.000120  -0.001115  -0.001061  -0.001731   0.000031
   16  C  2  S    0.093556  -0.053539  -0.075296   0.034399   0.004946
   17  C  2  S   -0.187523   0.106240   0.153345  -0.064249  -0.010718
   18  C  2  X   -0.137950  -0.177645  -0.080101   0.135463  -0.185364
   19  C  2  Y   -0.010638  -0.030967  -0.005033  -0.015712  -0.028942
   20  C  2  Z   -0.100270  -0.238587   0.089549  -0.254088  -0.057755
   21  C  2  S   -0.157534   0.110005   0.154615  -0.059539  -0.010663
   22  C  2  X   -0.037560  -0.060107  -0.060837   0.056996  -0.087418
   23  C  2  Y    0.002967  -0.017041  -0.006842  -0.011775  -0.008832
   24  C  2  Z   -0.027806  -0.094152   0.041320  -0.116463  -0.026420
   25  C  2 XX   -0.017087  -0.010000   0.011970  -0.017258   0.000261
   26  C  2 YY    0.006046  -0.003738  -0.004258   0.002601  -0.000053
   27  C  2 ZZ    0.008067   0.017600  -0.004252   0.006917   0.003353
   28  C  2 XY   -0.003130  -0.000478   0.003017  -0.004701  -0.000902
   29  C  2 XZ   -0.009732  -0.006015  -0.010197   0.004248  -0.003179
   30  C  2 YZ   -0.000120   0.001115  -0.001061   0.001731  -0.000031
   31  C  3  S   -0.112932   0.100522  -0.079389   0.001935  -0.052714
   32  C  3  S    0.219183  -0.197077   0.154199  -0.005397   0.099942
   33  C  3  X   -0.141311   0.058774   0.164204   0.104685   0.250494
   34  C  3  Y   -0.035882   0.025323  -0.011189  -0.073623  -0.009348
   35  C  3  Z    0.040094  -0.010185  -0.044912   0.099145  -0.073060
   36  C  3  S    0.199076  -0.187115   0.152665  -0.014832   0.112739
   37  C  3  X   -0.047148   0.025383   0.072708   0.043362   0.104546
   38  C  3  Y   -0.020360   0.018995  -0.007123  -0.034664  -0.006866
   39  C  3  Z    0.017315  -0.013790  -0.025887   0.034354  -0.021649
   40  C  3 XX    0.015326  -0.010439   0.002927   0.001708   0.003231
   41  C  3 YY   -0.003522   0.001572   0.002915  -0.001015   0.004159
   42  C  3 ZZ   -0.003260   0.001231   0.003462  -0.000563   0.002234
   43  C  3 XY    0.000589   0.003428  -0.011555  -0.005066  -0.013577
   44  C  3 XZ   -0.006036  -0.001829   0.004422  -0.002705   0.009384
   45  C  3 YZ   -0.006148   0.006400  -0.009476   0.002596  -0.008502
   46  C  4  S    0.112932   0.100522   0.079389   0.001935  -0.052714
   47  C  4  S   -0.219183  -0.197077  -0.154199  -0.005397   0.099942
   48  C  4  X    0.141311   0.058774  -0.164204   0.104685   0.250494
   49  C  4  Y    0.035882   0.025323   0.011189  -0.073623  -0.009348
   50  C  4  Z    0.040094   0.010185  -0.044912  -0.099145   0.073060
   51  C  4  S   -0.199076  -0.187115  -0.152665  -0.014832   0.112739
   52  C  4  X    0.047148   0.025383  -0.072708   0.043362   0.104546
   53  C  4  Y    0.020360   0.018995   0.007123  -0.034664  -0.006866
   54  C  4  Z    0.017315   0.013790  -0.025887  -0.034354   0.021649
   55  C  4 XX   -0.015326  -0.010439  -0.002927   0.001708   0.003231
   56  C  4 YY    0.003522   0.001572  -0.002915  -0.001015   0.004159
   57  C  4 ZZ    0.003260   0.001231  -0.003462  -0.000563   0.002234
   58  C  4 XY   -0.000589   0.003428   0.011555  -0.005066  -0.013577
   59  C  4 XZ   -0.006036   0.001829   0.004422   0.002705  -0.009384
   60  C  4 YZ   -0.006148  -0.006400  -0.009476  -0.002596   0.008502
   61  H  5  S    0.026070   0.055618  -0.133459  -0.170474   0.072798
   62  H  5  S   -0.014645   0.004668  -0.064438  -0.119985   0.041101
   63  H  6  S   -0.026070   0.055618   0.133459  -0.170474   0.072798
   64  H  6  S    0.014645   0.004668   0.064438  -0.119985   0.041101
   65  H  7  S    0.043336  -0.053034   0.082479  -0.067397   0.076489
   66  H  7  S   -0.009902  -0.000353   0.039648  -0.034918   0.053279
   67  H  8  S   -0.043336  -0.053034  -0.082479  -0.067397   0.076489
   68  H  8  S    0.009902  -0.000353  -0.039648  -0.034918   0.053279
   69  H  9  S    0.035277  -0.062563   0.143175   0.080292   0.169190
   70  H  9  S   -0.004975  -0.017869   0.074542   0.052606   0.106616
   71  H 10  S   -0.035277  -0.062563  -0.143175   0.080292   0.169190
   72  H 10  S    0.004975  -0.017869  -0.074542   0.052606   0.106616

                     11         12         13         14         15
                   -1.7143    -1.6449    -1.6438    -1.3330    -1.1476
                     A''        A'         A''        A'         A'' 
    1  C  1  S    0.024636  -0.010833   0.019345  -0.005259  -0.016634
    2  C  1  S   -0.043875   0.021912  -0.041995   0.011131   0.034362
    3  C  1  X    0.263270  -0.032285  -0.005926  -0.034929  -0.026240
    4  C  1  Y    0.030284  -0.006539   0.031583   0.341514   0.302903
    5  C  1  Z    0.039477  -0.183672   0.004187   0.014430   0.038021
    6  C  1  S   -0.052617   0.019967  -0.055407  -0.003630   0.132073
    7  C  1  X    0.140074  -0.023004   0.010964  -0.032237  -0.034360
    8  C  1  Y    0.008858   0.019905   0.005477   0.260060   0.276652
    9  C  1  Z    0.024686  -0.110387   0.013836  -0.001299   0.068164
   10  C  1 XX   -0.008085   0.016273  -0.006752   0.001726   0.004428
   11  C  1 YY    0.002800  -0.001967   0.001661   0.002330   0.005223
   12  C  1 ZZ   -0.001387  -0.010725   0.005399  -0.004464  -0.010987
   13  C  1 XY   -0.001562  -0.001835   0.003742   0.005474   0.008282
   14  C  1 XZ   -0.022089   0.008870  -0.004026   0.003042   0.006655
   15  C  1 YZ   -0.002416   0.003925  -0.004193   0.012901  -0.010582
   16  C  2  S   -0.024636  -0.010833  -0.019345  -0.005259   0.016634
   17  C  2  S    0.043875   0.021912   0.041995   0.011131  -0.034362
   18  C  2  X   -0.263270  -0.032285   0.005926  -0.034929   0.026240
   19  C  2  Y   -0.030284  -0.006539  -0.031583   0.341514  -0.302903
   20  C  2  Z    0.039477   0.183672   0.004187  -0.014430   0.038021
   21  C  2  S    0.052617   0.019967   0.055407  -0.003630  -0.132073
   22  C  2  X   -0.140074  -0.023004  -0.010964  -0.032237   0.034360
   23  C  2  Y   -0.008858   0.019905  -0.005477   0.260060  -0.276652
   24  C  2  Z    0.024686   0.110387   0.013836   0.001299   0.068164
   25  C  2 XX    0.008085   0.016273   0.006752   0.001726  -0.004428
   26  C  2 YY   -0.002800  -0.001967  -0.001661   0.002330  -0.005223
   27  C  2 ZZ    0.001387  -0.010725  -0.005399  -0.004464   0.010987
   28  C  2 XY    0.001562  -0.001835  -0.003742   0.005474  -0.008282
   29  C  2 XZ   -0.022089  -0.008870  -0.004026  -0.003042   0.006655
   30  C  2 YZ   -0.002416  -0.003925  -0.004193  -0.012901  -0.010582
   31  C  3  S    0.015222   0.019144  -0.001452  -0.007257  -0.017927
   32  C  3  S   -0.026859  -0.034255   0.002992   0.014233   0.039835
   33  C  3  X   -0.199143   0.024089  -0.105739   0.024877   0.058765
   34  C  3  Y   -0.027759  -0.176791   0.212183   0.108806   0.204948
   35  C  3  Z    0.103317   0.199696  -0.206905   0.106284   0.207238
   36  C  3  S   -0.025450  -0.033484  -0.023336   0.015327   0.062750
   37  C  3  X   -0.098383   0.009919  -0.057468   0.020420   0.064440
   38  C  3  Y   -0.011969  -0.085927   0.108815   0.076177   0.183562
   39  C  3  Z    0.041974   0.120403  -0.123913   0.076088   0.188829
   40  C  3 XX    0.000467   0.016378  -0.018568   0.004410   0.007558
   41  C  3 YY   -0.004093  -0.003801   0.003126  -0.004139  -0.002410
   42  C  3 ZZ   -0.004239  -0.016666   0.018387  -0.000346  -0.005627
   43  C  3 XY    0.008456  -0.004023   0.007788  -0.012721  -0.012215
   44  C  3 XZ   -0.008006   0.004575  -0.001323  -0.001103  -0.002015
   45  C  3 YZ    0.006280   0.013979  -0.012793   0.007729   0.004222
   46  C  4  S   -0.015222   0.019144   0.001452  -0.007257   0.017927
   47  C  4  S    0.026859  -0.034255  -0.002992   0.014233  -0.039835
   48  C  4  X    0.199143   0.024089   0.105739   0.024877  -0.058765
   49  C  4  Y    0.027759  -0.176791  -0.212183   0.108806  -0.204948
   50  C  4  Z    0.103317  -0.199696  -0.206905  -0.106284   0.207238
   51  C  4  S    0.025450  -0.033484   0.023336   0.015327  -0.062750
   52  C  4  X    0.098383   0.009919   0.057468   0.020420  -0.064440
   53  C  4  Y    0.011969  -0.085927  -0.108815   0.076177  -0.183562
   54  C  4  Z    0.041974  -0.120403  -0.123913  -0.076088   0.188829
   55  C  4 XX   -0.000467   0.016378   0.018568   0.004410  -0.007558
   56  C  4 YY    0.004093  -0.003801  -0.003126  -0.004139   0.002410
   57  C  4 ZZ    0.004239  -0.016666  -0.018387  -0.000346   0.005627
   58  C  4 XY   -0.008456  -0.004023  -0.007788  -0.012721   0.012215
   59  C  4 XZ   -0.008006  -0.004575  -0.001323   0.001103  -0.002015
   60  C  4 YZ    0.006280  -0.013979  -0.012793  -0.007729   0.004222
   61  H  5  S   -0.187301   0.097525  -0.025451   0.005162   0.012336
   62  H  5  S   -0.137177   0.085044  -0.010011   0.015696   0.016863
   63  H  6  S    0.187301   0.097525   0.025451   0.005162  -0.012336
   64  H  6  S    0.137177   0.085044   0.010011   0.015696  -0.016863
   65  H  7  S   -0.076018  -0.193984   0.194091  -0.025311  -0.032735
   66  H  7  S   -0.063174  -0.154982   0.153737  -0.048753  -0.059773
   67  H  8  S    0.076018  -0.193984  -0.194091  -0.025311   0.032735
   68  H  8  S    0.063174  -0.154982  -0.153737  -0.048753   0.059773
   69  H  9  S   -0.095632   0.090763  -0.150270   0.020689   0.030325
   70  H  9  S   -0.064191   0.084155  -0.116225   0.035767   0.031287
   71  H 10  S    0.095632   0.090763   0.150270   0.020689  -0.030325
   72  H 10  S    0.064191   0.084155   0.116225   0.035767  -0.031287

                     16         17         18         19         20
                   -1.1082    -0.9758    -0.8250    -0.7908    -0.7267
                     A'         A''        A'         A''        A'' 
    1  C  1  S    0.016640  -0.008046   0.077476  -0.113007  -0.096940
    2  C  1  S   -0.037616   0.020420  -0.223650   0.291800   0.279520
    3  C  1  X   -0.002749  -0.035735  -0.282928   0.030959   0.222387
    4  C  1  Y   -0.200331   0.416911  -0.005848  -0.028119  -0.019605
    5  C  1  Z   -0.043778   0.018651   0.151531   0.562370  -0.203185
    6  C  1  S   -0.072549   0.168479  -0.872026   1.499574   1.068941
    7  C  1  X   -0.003838   0.009716  -0.509046   0.167231   0.572957
    8  C  1  Y   -0.191507   0.366810  -0.017054   0.010531   0.000467
    9  C  1  Z   -0.036384   0.087187   0.287746   0.992729  -0.273608
   10  C  1 XX    0.009485  -0.005354   0.044694   0.024377  -0.050961
   11  C  1 YY   -0.000607   0.006418  -0.019220   0.017097   0.024070
   12  C  1 ZZ   -0.006676  -0.002173  -0.013142  -0.058781   0.001345
   13  C  1 XY    0.011285  -0.005625  -0.007478  -0.005789   0.001293
   14  C  1 XZ    0.009834  -0.002677  -0.045203   0.022719  -0.007916
   15  C  1 YZ   -0.008810  -0.005368   0.003608   0.012497  -0.002555
   16  C  2  S    0.016640   0.008046   0.077476   0.113007   0.096940
   17  C  2  S   -0.037616  -0.020420  -0.223650  -0.291800  -0.279520
   18  C  2  X   -0.002749   0.035735  -0.282928  -0.030959  -0.222387
   19  C  2  Y   -0.200331  -0.416911  -0.005848   0.028119   0.019605
   20  C  2  Z    0.043778   0.018651  -0.151531   0.562370  -0.203185
   21  C  2  S   -0.072549  -0.168479  -0.872026  -1.499574  -1.068941
   22  C  2  X   -0.003838  -0.009716  -0.509046  -0.167231  -0.572957
   23  C  2  Y   -0.191507  -0.366810  -0.017054  -0.010531  -0.000467
   24  C  2  Z    0.036384   0.087187  -0.287746   0.992729  -0.273608
   25  C  2 XX    0.009485   0.005354   0.044694  -0.024377   0.050961
   26  C  2 YY   -0.000607  -0.006418  -0.019220  -0.017097  -0.024070
   27  C  2 ZZ   -0.006676   0.002173  -0.013142   0.058781  -0.001345
   28  C  2 XY    0.011285   0.005625  -0.007478   0.005789  -0.001293
   29  C  2 XZ   -0.009834  -0.002677   0.045203   0.022719  -0.007916
   30  C  2 YZ    0.008810  -0.005368  -0.003608   0.012497  -0.002555
   31  C  3  S   -0.014058   0.020893  -0.084156   0.017024   0.085913
   32  C  3  S    0.035788  -0.049676   0.200767  -0.048043  -0.236359
   33  C  3  X    0.056695  -0.055091  -0.247234   0.055641   0.226500
   34  C  3  Y    0.298651  -0.278424  -0.142997  -0.051420   0.151512
   35  C  3  Z    0.243131  -0.237471   0.153142  -0.040279  -0.204087
   36  C  3  S    0.084775  -0.139518   0.968816  -0.243188  -1.011084
   37  C  3  X    0.043679  -0.011019  -0.450324   0.120089   0.481251
   38  C  3  Y    0.268368  -0.227381  -0.263767  -0.084590   0.258412
   39  C  3  Z    0.206603  -0.190088   0.261149  -0.139173  -0.289951
   40  C  3 XX   -0.008120   0.007772  -0.044896  -0.025743   0.050213
   41  C  3 YY    0.003165  -0.004929   0.003049   0.004044  -0.009614
   42  C  3 ZZ    0.002191  -0.000805   0.028825   0.021690  -0.032668
   43  C  3 XY    0.006936  -0.011041   0.002386   0.008131   0.001197
   44  C  3 XZ    0.002379  -0.002369  -0.000778  -0.036035   0.003344
   45  C  3 YZ    0.001884  -0.005370  -0.007646  -0.016736   0.007162
   46  C  4  S   -0.014058  -0.020893  -0.084156  -0.017024  -0.085913
   47  C  4  S    0.035788   0.049676   0.200767   0.048043   0.236359
   48  C  4  X    0.056695   0.055091  -0.247234  -0.055641  -0.226500
   49  C  4  Y    0.298651   0.278424  -0.142997   0.051420  -0.151512
   50  C  4  Z   -0.243131  -0.237471  -0.153142  -0.040279  -0.204087
   51  C  4  S    0.084775   0.139518   0.968816   0.243188   1.011084
   52  C  4  X    0.043679   0.011019  -0.450324  -0.120089  -0.481251
   53  C  4  Y    0.268368   0.227381  -0.263767   0.084590  -0.258412
   54  C  4  Z   -0.206603  -0.190088  -0.261149  -0.139173  -0.289951
   55  C  4 XX   -0.008120  -0.007772  -0.044896   0.025743  -0.050213
   56  C  4 YY    0.003165   0.004929   0.003049  -0.004044   0.009614
   57  C  4 ZZ    0.002191   0.000805   0.028825  -0.021690   0.032668
   58  C  4 XY    0.006936   0.011041   0.002386  -0.008131  -0.001197
   59  C  4 XZ   -0.002379  -0.002369   0.000778  -0.036035   0.003344
   60  C  4 YZ   -0.001884  -0.005370   0.007646  -0.016736   0.007162
   61  H  5  S    0.041551  -0.018728   0.024825  -0.012730  -0.120844
   62  H  5  S    0.064960  -0.007969   0.020897   0.049113  -0.279146
   63  H  6  S    0.041551   0.018728   0.024825   0.012730   0.120844
   64  H  6  S    0.064960   0.007969   0.020897  -0.049113   0.279146
   65  H  7  S    0.008472  -0.010097   0.019791   0.070222  -0.024944
   66  H  7  S    0.006226  -0.009889   0.100513   0.170489  -0.125719
   67  H  8  S    0.008472   0.010097   0.019791  -0.070222   0.024944
   68  H  8  S    0.006226   0.009889   0.100513  -0.170489   0.125719
   69  H  9  S   -0.041545   0.029958  -0.101957  -0.038065   0.096867
   70  H  9  S   -0.060306   0.037088  -0.263592  -0.092313   0.270569
   71  H 10  S   -0.041545  -0.029958  -0.101957   0.038065  -0.096867
   72  H 10  S   -0.060306  -0.037088  -0.263592   0.092313  -0.270569

                     21         22         23         24         25
                   -0.7092    -0.6466    -0.6167    -0.5822    -0.5476
                     A'         A'         A'         A''        A'' 
    1  C  1  S    0.028656   0.027472  -0.040465  -0.020613   0.029801
    2  C  1  S   -0.212441  -0.110863  -0.051495   0.070578  -0.065945
    3  C  1  X    0.241838   0.000258  -0.288705  -0.326326   0.359900
    4  C  1  Y    0.050927  -0.008970  -0.028762  -0.007099   0.041672
    5  C  1  Z    0.079406   0.076566  -0.159255  -0.008545   0.158941
    6  C  1  S   -0.123563  -0.542864   0.649082   0.347971  -0.046805
    7  C  1  X    0.597833  -0.210130  -0.051514  -0.475798   0.549689
    8  C  1  Y    0.170141  -0.089165   0.080943  -0.192276  -0.056261
    9  C  1  Z    0.092583   0.149956  -0.254031   0.361823   0.442440
   10  C  1 XX    0.028399  -0.002996  -0.041537  -0.010557   0.030558
   11  C  1 YY   -0.018909  -0.000951   0.019819   0.006607  -0.011648
   12  C  1 ZZ   -0.017407  -0.003047  -0.018157   0.005756  -0.001858
   13  C  1 XY   -0.007764   0.012985  -0.042117   0.008194   0.034860
   14  C  1 XZ    0.107694  -0.004850  -0.000865  -0.023987   0.005995
   15  C  1 YZ    0.023035  -0.021465  -0.000476   0.000968   0.002128
   16  C  2  S    0.028656   0.027472  -0.040465   0.020613  -0.029801
   17  C  2  S   -0.212441  -0.110863  -0.051495  -0.070578   0.065945
   18  C  2  X    0.241838   0.000258  -0.288705   0.326326  -0.359900
   19  C  2  Y    0.050927  -0.008970  -0.028762   0.007099  -0.041672
   20  C  2  Z   -0.079406  -0.076566   0.159255  -0.008545   0.158941
   21  C  2  S   -0.123563  -0.542864   0.649082  -0.347971   0.046805
   22  C  2  X    0.597833  -0.210130  -0.051514   0.475798  -0.549689
   23  C  2  Y    0.170141  -0.089165   0.080943   0.192276   0.056261
   24  C  2  Z   -0.092583  -0.149956   0.254031   0.361823   0.442440
   25  C  2 XX    0.028399  -0.002996  -0.041537   0.010557  -0.030558
   26  C  2 YY   -0.018909  -0.000951   0.019819  -0.006607   0.011648
   27  C  2 ZZ   -0.017407  -0.003047  -0.018157  -0.005756   0.001858
   28  C  2 XY   -0.007764   0.012985  -0.042117  -0.008194  -0.034860
   29  C  2 XZ   -0.107694   0.004850   0.000865  -0.023987   0.005995
   30  C  2 YZ   -0.023035   0.021465   0.000476   0.000968   0.002128
   31  C  3  S    0.032439   0.056819   0.041779  -0.074195   0.007609
   32  C  3  S   -0.147427  -0.230081  -0.252161   0.215560   0.053460
   33  C  3  X    0.182715  -0.327778   0.147342  -0.049202  -0.175427
   34  C  3  Y   -0.097744   0.114555  -0.139316   0.160433   0.205870
   35  C  3  Z    0.000523  -0.030270   0.122109  -0.228745  -0.215973
   36  C  3  S   -0.482875  -0.440067  -0.414695   1.063635  -0.290314
   37  C  3  X    0.301966  -0.725649   0.105265  -0.216296   0.029545
   38  C  3  Y   -0.275860   0.058238  -0.354466   0.191734   0.311023
   39  C  3  Z    0.081093   0.220944   0.488004  -0.289687  -0.536516
   40  C  3 XX   -0.041088   0.001861  -0.043216   0.000763   0.029222
   41  C  3 YY   -0.006299   0.000670   0.005407   0.007698  -0.010383
   42  C  3 ZZ    0.043698   0.001677   0.031298  -0.023250  -0.012449
   43  C  3 XY    0.012273  -0.029066   0.012958  -0.005806  -0.016239
   44  C  3 XZ   -0.023352   0.005923   0.021864   0.017670  -0.028222
   45  C  3 YZ   -0.023998  -0.016955  -0.030085   0.031730   0.021178
   46  C  4  S    0.032439   0.056819   0.041779   0.074195  -0.007609
   47  C  4  S   -0.147427  -0.230081  -0.252161  -0.215560  -0.053460
   48  C  4  X    0.182715  -0.327778   0.147342   0.049202   0.175427
   49  C  4  Y   -0.097744   0.114555  -0.139316  -0.160433  -0.205870
   50  C  4  Z   -0.000523   0.030270  -0.122109  -0.228745  -0.215973
   51  C  4  S   -0.482875  -0.440067  -0.414695  -1.063635   0.290314
   52  C  4  X    0.301966  -0.725649   0.105265   0.216296  -0.029545
   53  C  4  Y   -0.275860   0.058238  -0.354466  -0.191734  -0.311023
   54  C  4  Z   -0.081093  -0.220944  -0.488004  -0.289687  -0.536516
   55  C  4 XX   -0.041088   0.001861  -0.043216  -0.000763  -0.029222
   56  C  4 YY   -0.006299   0.000670   0.005407  -0.007698   0.010383
[...]

 MASTER NODE HAS FINISHED WITH (OO|OO) INTEGRALS, T=    0.1
 MASTER NODE HAS FINISHED WITH (VO|OO) INTEGRALS, T=    0.0
 MASTER NODE HAS FINISHED WITH (VV|OO) INTEGRALS, T=    0.0
 MASTER NODE HAS FINISHED WITH (VO|VO) INTEGRALS, T=    0.0

 FINISHED SETTING UP RIGHT-HAND SIDE.
 CPU     0: STEP CPU TIME=     0.24 TOTAL CPU TIME=       58.7 (    1.0 MIN)
 TOTAL WALL CLOCK TIME=       58.7 SECONDS, CPU UTILIZATION IS 100.00%

 CALCULATING MCSCF ELECTRONIC HESSIAN ON THE FLY.
 # OF ORBITAL ROTATIONS   =        987
 LENGTH OF DET. EXPANSION =         36

 SOLVING CPMCHF EQUATIONS - ESSENTIAL MEMORY.
 # OF WORDS REQUIRED  =     318157
 # OF WORDS AVAILABLE =    1000000

 SOLVING FOR   15 NUCLEAR RESPONSES AND 0 ELECTRIC FIELD RESPONSES

 PRECONDITIONED CONJUGATE GRADIENT SOLVER    CONV. TOLERANCE=1.00E-07
 ITER   RESPONSE ERROR    IMPROVED     ORB-ORB     CI-ORB
   1      1.09284E+00        15            0.1        0.0
 DUE TO LARGE RES. NORM, GUESS SET TO 0 VECTOR.
   1      1.66667E-01        15            0.1        0.0
   2      1.64689E-01        15            0.1        0.0
   3      1.99065E+00        15            0.1        0.0
   4      2.56950E+00        15            0.1        0.0
   5      1.00900E+00        15            0.1        0.0
   6      1.06583E+00        15            0.1        0.0
   7      1.20161E+00        15            0.1        0.0
   8      5.53083E-01        15            0.2        0.0
   9      7.02622E-01        15            0.1        0.0
  10      6.69266E-01        15            0.1        0.0
  11      5.33583E-01        15            0.2        0.0
  12      5.12351E-01        15            0.2        0.0
  13      5.24022E-01        15            0.1        0.0
  14      4.69226E-01        15            0.1        0.0
  15      4.94194E-01        15            0.1        0.0
  16      5.49653E-01        15            0.1        0.0
  17      5.50040E-01        15            0.1        0.0
  18      1.17954E+00        15            0.1        0.0
  19      5.55139E-01        15            0.1        0.0
  20      1.59309E+00        15            0.1        0.0
  21      1.70620E+00        15            0.1        0.0
  22      1.28524E+01        15            0.1        0.0
  23      2.57839E+00        15            0.2        0.0
  24      9.75405E-01        15            0.1        0.0
  25      7.90111E-01        15            0.1        0.0
  26      1.83457E+01        15            0.1        0.0
  27      2.51918E+00        15            0.1        0.0
  28      1.85657E+00        15            0.2        0.0
  29      2.11780E+00        15            0.1        0.0
  30      1.76380E+00        15            0.1        0.0
  31      9.77327E-01        15            0.1        0.0
  32      3.19168E-01        15            0.1        0.0
  33      4.49644E-01        15            0.1        0.0
  34      7.38542E-01        15            0.1        0.0
  35      1.05547E+00        15            0.1        0.0
  36      3.43049E-01        15            0.1        0.0
  37      3.96760E-01        15            0.1        0.0
  38      3.23740E-01        15            0.1        0.0
  39      3.85807E-01        15            0.1        0.0
  40      1.97105E+00        15            0.1        0.0
  41      8.14205E-01        15            0.1        0.0
  42      4.28472E+00        15            0.1        0.0
  43      2.83989E-01        15            0.1        0.0
  44      7.85363E+00        15            0.1        0.0
  45      2.21304E-01        15            0.1        0.0
  46      2.24003E-01        15            0.1        0.0
  47      3.39431E+00        15            0.1        0.0
  48      3.27549E+00        15            0.1        0.0
  49      1.85893E+00        15            0.1        0.0
 DUE TO SLOW CONVERGENCE, TOLERANCE HAS BEEN RAISED TO 3.00E-07
  50      1.47102E+00        15            0.1        0.0
  51      7.10758E-01        15            0.1        0.0
  52      9.88622E-01        15            0.1        0.0
  53      3.35729E+00        15            0.1        0.0
  54      3.71589E-01        15            0.1        0.0
  55      2.75343E+00        15            0.1        0.0
  56      1.21428E+00        15            0.2        0.0
  57      2.11430E-01        15            0.1        0.0
  58      2.67652E-01        15            0.1        0.0
  59      6.58108E-01        15            0.1        0.0
  60      7.20091E-01        15            0.1        0.0
  61      1.06015E+00        15            0.1        0.0
  62      2.60202E+00        15            0.1        0.0
  63      1.40141E+01        15            0.1        0.0
  64      1.88563E+00        15            0.1        0.0
  65      6.59932E-01        15            0.1        0.0
  66      1.23462E+00        15            0.1        0.0
  67      8.18366E-01        15            0.1        0.0
  68      1.25942E+00        15            0.1        0.0
  69      5.83557E+00        15            0.1        0.0
  70      1.22795E+00        15            0.1        0.0
  71      8.00907E-01        15            0.1        0.0
  72      1.04966E+00        15            0.1        0.0
  73      3.57669E+01        15            0.1        0.0
  74      3.31833E+01        15            0.1        0.0
  75      3.93278E+00        15            0.1        0.0
  76      6.49665E+00        15            0.1        0.0
  77      2.00357E+00        15            0.1        0.0
  78      1.42992E+00        15            0.2        0.0
  79      6.49047E-01        15            0.1        0.0
  80      2.71884E-01        15            0.1        0.0
  81      7.36318E-01        15            0.1        0.0
  82      4.02740E-01        15            0.1        0.0
  83      4.85206E-01        15            0.1        0.0
  84      6.33885E-01        15            0.1        0.0
  85      6.57157E-01        15            0.1        0.0
  86      4.14829E-01        15            0.1        0.0
  87      2.68627E+00        15            0.1        0.0
  88      1.49450E+00        15            0.1        0.0
  89      4.14978E-01        15            0.2        0.0
  90      7.80188E-01        15            0.1        0.0
  91      5.29343E-01        15            0.2        0.0
  92      6.08820E-01        15            0.1        0.0
  93      6.91204E-01        15            0.1        0.0
  94      1.70490E+00        15            0.1        0.0
  95      3.14154E+01        15            0.1        0.0
  96      1.42076E+00        15            0.1        0.0
  97      2.70048E+01        15            0.1        0.0
  98      9.91434E-01        15            0.1        0.0
  99      2.02915E+00        15            0.1        0.0
 DUE TO SLOW CONVERGENCE, TOLERANCE HAS BEEN RAISED TO 9.00E-07
 100      6.62793E-01        15            0.1        0.0
 101      2.50532E+00        15            0.1        0.0
 102      3.61362E+00        15            0.1        0.0
 103      1.58143E+00        15            0.1        0.0
 104      2.39434E+00        15            0.1        0.0
 105      3.42395E+00        15            0.1        0.0
 106      4.90025E-01        15            0.1        0.0
 107      2.86131E-01        15            0.1        0.0
 108      6.69402E-01        15            0.1        0.0
 109      5.44156E-01        15            0.1        0.0
 110      2.00839E+00        15            0.1        0.0
 111      3.31161E+01        15            0.1        0.0
 112      2.15374E+01        15            0.1        0.0
 113      2.49420E-01        15            0.1        0.0
 114      1.23097E+00        15            0.1        0.0
 115      1.87166E-01        15            0.1        0.0
 116      1.34404E+00        15            0.1        0.0
 117      8.60384E-02        15            0.1        0.0
 118      1.57405E-01        15            0.1        0.0
 119      6.24063E-02        15            0.1        0.0
 120      7.29738E-02        15            0.1        0.0
 121      3.82614E+00        15            0.1        0.0
 122      1.01802E+00        15            0.1        0.0
 123      3.71828E-01        15            0.2        0.0
 124      7.57352E-01        15            0.1        0.0
 125      2.56852E-01        15            0.1        0.0
 126      2.16868E-01        15            0.1        0.0
 127      5.83010E-02        15            0.1        0.0
 128      5.25343E-02        15            0.1        0.0
 129      9.14986E-02        15            0.1        0.0
 130      3.19633E-02        15            0.1        0.0
 131      2.64203E-02        15            0.1        0.0
 132      2.26033E-02        15            0.1        0.0
 133      2.43549E-02        15            0.1        0.0
 134      5.65415E-02        15            0.1        0.0
 135      6.72801E-02        15            0.1        0.0
 136      5.78488E-02        15            0.1        0.0
 137      4.67313E-02        15            0.1        0.0
 138      9.77749E-02        15            0.1        0.0
 139      3.15602E-01        15            0.1        0.0
 140      7.60974E-01        15            0.1        0.0
 141      2.48537E-01        15            0.1        0.0
 142      1.69061E-01        15            0.1        0.0
 143      2.33771E-01        15            0.1        0.0
 144      4.06812E-02        15            0.1        0.0
 145      4.31721E-02        15            0.1        0.0
 146      8.70440E-02        15            0.1        0.0
 147      6.05881E-02        15            0.1        0.0
 148      2.99225E-02        15            0.1        0.0
 149      3.03610E-02        15            0.1        0.0
 DUE TO SLOW CONVERGENCE, TOLERANCE HAS BEEN RAISED TO 2.70E-06
 150      3.07433E-02        15            0.1        0.0
 151      1.96787E-02        15            0.2        0.0
 152      1.20875E-02        15            0.1        0.0
 153      2.05326E-02        15            0.1        0.0
 154      1.88186E-01        15            0.1        0.0
 155      1.67307E-02        15            0.1        0.0
 156      1.97892E-01        15            0.1        0.0
 157      3.40518E-02        15            0.1        0.0
 158      6.51863E-01        15            0.1        0.0
 159      3.44443E-01        15            0.1        0.0
 160      4.26668E-01        15            0.1        0.0
 161      1.92717E-01        15            0.1        0.0
 162      9.04290E-01        15            0.1        0.0
 163      6.55062E-03        15            0.1        0.0
 164      2.61115E-02        15            0.1        0.0
 165      5.63085E-03        15            0.1        0.0
 166      4.60938E-03        15            0.2        0.0
 167      6.85583E-03        15            0.1        0.0
 168      6.81182E-03        15            0.1        0.0
 169      7.89333E-03        15            0.1        0.0
 170      1.70594E-02        15            0.1        0.0
 171      1.73931E-02        15            0.1        0.0
 172      1.51679E-02        15            0.1        0.0
 173      1.28680E-02        15            0.1        0.0
 174      9.26958E-02        15            0.1        0.0
 175      4.75648E-03        15            0.1        0.0
 176      3.71965E-03        15            0.1        0.0
 177      5.30734E-03        15            0.1        0.0
 178      9.13117E-03        15            0.1        0.0
 179      1.07791E-02        15            0.2        0.0
 180      6.75873E-02        15            0.1        0.0
 181      1.28393E-02        15            0.1        0.0
 182      2.93289E-02        15            0.1        0.0
 183      1.68624E-02        15            0.1        0.0
 184      1.22048E-01        15            0.1        0.0
 185      1.21827E-01        15            0.1        0.0
 186      2.94334E+00        15            0.1        0.0
 187      1.77245E-01        15            0.1        0.0
 188      7.19296E-02        15            0.1        0.0
 189      1.55778E-02        15            0.1        0.0
 190      1.71474E-02        15            0.1        0.0
 191      1.77417E-02        15            0.1        0.0
 192      3.77521E-02        15            0.1        0.0
 193      5.34511E-02        15            0.1        0.0
 194      3.14567E-02        15            0.1        0.0
 195      2.91867E-02        15            0.1        0.0
 196      2.16393E-02        15            0.1        0.0
 197      2.25527E-02        15            0.1        0.0
 198      1.91161E-02        15            0.1        0.0
 199      7.75460E-03        15            0.1        0.0
 DUE TO SLOW CONVERGENCE, TOLERANCE HAS BEEN RAISED TO 8.10E-06
 200      9.43361E-03        14            0.1        0.0
 201      6.60665E-03        14            0.1        0.0
 202      6.36395E-03        14            0.1        0.0
 203      2.92687E-03        14            0.1        0.0
 204      2.93520E-03        14            0.1        0.0
 205      3.61870E-03        14            0.2        0.0
 206      2.04722E-02        14            0.1        0.0
 207      2.75911E-02        14            0.1        0.0
 208      1.26884E-02        14            0.2        0.0
 209      2.16079E-02        14            0.1        0.0
 210      7.73420E-03        14            0.1        0.0
 211      5.30097E-03        14            0.1        0.0
 212      4.76146E-03        14            0.1        0.0
 213      5.00805E-03        13            0.1        0.0
 214      3.66834E-03        13            0.1        0.0
 215      3.76795E-03        13            0.1        0.0
 216      3.75823E-03        13            0.1        0.0
 217      3.84873E-03        13            0.1        0.0
 218      6.24505E-03        13            0.2        0.0
 219      2.58672E-03        13            0.1        0.0
 220      2.35151E-03        12            0.1        0.0
 221      2.30169E-03        12            0.2        0.0
 222      3.82413E-03        12            0.1        0.0
 223      3.78327E-02        12            0.2        0.0
 224      4.88016E-02        12            0.1        0.0
 225      2.31256E-03        12            0.1        0.0
 226      2.67905E-03        12            0.1        0.0
 227      1.82162E-03        12            0.1        0.0
 228      2.63817E-01        12            0.1        0.0
 229      1.30921E-03        12            0.1        0.0
 230      1.29053E-03        12            0.1        0.0
 231      2.56212E-03        12            0.1        0.0
 232      2.88957E-03        12            0.1        0.0
 233      1.02632E-02        12            0.1        0.0
 234      1.93386E-02        12            0.1        0.0
 235      1.03939E-02        12            0.1        0.0
 236      1.13558E-02        11            0.2        0.0
 237      5.76372E-03        11            0.1        0.0
 238      6.27713E-03        11            0.1        0.0
 239      4.44803E-03        11            0.1        0.0
 240      4.12475E-03        11            0.1        0.0
 241      1.98006E-02        11            0.1        0.0
 242      7.52564E-03        11            0.1        0.0
 243      3.64428E-03        11            0.1        0.0
 244      1.11817E-02        11            0.1        0.0
 245      1.81508E-02        11            0.1        0.0
 246      3.25824E-02        11            0.1        0.0
 247      2.56251E-02        11            0.1        0.0
 248      2.12339E-02        11            0.1        0.0
 249      3.24494E-02        11            0.1        0.0
 DUE TO SLOW CONVERGENCE, TOLERANCE HAS BEEN RAISED TO 2.43E-05
 250      4.67963E-02        10            0.1        0.0
 251      2.99012E-02         9            0.2        0.0
 252      9.32734E-03         9            0.1        0.0
 253      2.68413E-03         8            0.1        0.0
 254      3.98716E-03         7            0.1        0.0
 255      3.67756E-03         7            0.1        0.0
 256      4.99447E-02         7            0.1        0.0
 257      3.51575E-03         7            0.1        0.0
 258      5.71664E-03         7            0.1        0.0
 259      5.41624E-03         7            0.1        0.0
 260      1.61150E-02         7            0.1        0.0
 261      1.72802E-02         7            0.2        0.0
 262      1.18505E-02         6            0.1        0.0
 263      1.02986E-02         6            0.1        0.0
 264      1.33010E-02         6            0.1        0.0
 265      5.71425E-03         6            0.1        0.0
 266      4.23698E-03         6            0.1        0.0
 267      3.95470E-03         6            0.1        0.0
 268      3.95373E-03         6            0.1        0.0
 269      3.54431E-03         6            0.1        0.0
 270      3.77775E-03         6            0.1        0.0
 271      8.27995E-01         6            0.1        0.0
 272      3.18616E-03         6            0.1        0.0
 273      8.10513E-03         6            0.1        0.0
 274      5.73201E-03         6            0.1        0.0
 275      4.91185E-03         6            0.1        0.0
 276      4.09653E-03         6            0.1        0.0
 277      4.15699E-03         6            0.1        0.0
 278      4.16749E-03         6            0.2        0.0
 279      6.99165E-03         6            0.1        0.0
 280      5.98611E-03         5            0.1        0.0
 281      4.31347E-03         5            0.1        0.0
 282      3.82270E-03         5            0.1        0.0
 283      4.09116E-03         5            0.1        0.0
 284      4.73708E-03         5            0.1        0.0
 285      4.21514E-03         5            0.1        0.0
 286      2.37601E-03         5            0.1        0.0
 287      2.74176E-03         5            0.2        0.0
 288      2.12912E-03         5            0.1        0.0
 289      3.74767E-03         5            0.1        0.0
 290      1.04039E-03         5            0.1        0.0
 291      1.09331E-03         5            0.1        0.0
 292      1.36250E-02         5            0.1        0.0
 293      1.25507E-03         5            0.1        0.0
 294      1.58450E-03         4            0.1        0.0
 295      3.70277E-03         4            0.1        0.0
 296      3.64725E-03         4            0.1        0.0
 297      2.06103E-03         4            0.1        0.0
 298      3.90659E-03         4            0.2        0.0
 299      6.12206E-03         4            0.1        0.0
 DUE TO SLOW CONVERGENCE, TOLERANCE HAS BEEN RAISED TO 7.29E-05
 RESET PDIRX AND RESIDUAL.
 300      1.30649E-03         4            0.1        0.0
 *** TOO MANY ITERATIONS IN MCCPCG *** MAXIT=  300
 EXECUTION OF GAMESS TERMINATED -ABNORMALLY- AT Fri Nov 17 11:18:02 2023
                   999614  WORDS OF DYNAMIC MEMORY USED
 CPU     0: STEP CPU TIME=    36.83 TOTAL CPU TIME=       95.5 (    1.6 MIN)
 TOTAL WALL CLOCK TIME=       95.5 SECONDS, CPU UTILIZATION IS 100.00%

job aborted:
[ranks] message

[0] process exited without calling finalize

[1-7] terminated

---- error analysis -----

[0] on PHYS0BHA-17
D:\gamess.64\gamess.00.exe ended prematurely and may have crashed. exit code 0xc0000417

---- error analysis -----
           Disk usage (in bytes)       
 ========================================
 ----------------------------------------
            Local date and time          
 ========================================
17.11.2023 - 11:18:10.78                          
