          ******************************************************
          *         GAMESS VERSION =  1 MAY 2013 (R1)          *
          *             FROM IOWA STATE UNIVERSITY             *
          * M.W.SCHMIDT, K.K.BALDRIDGE, J.A.BOATZ, S.T.ELBERT, *
          *   M.S.GORDON, J.H.JENSEN, S.KOSEKI, N.MATSUNAGA,   *
          *          K.A.NGUYEN, S.J.SU, T.L.WINDUS,           *
          *       TOGETHER WITH M.DUPUIS, J.A.MONTGOMERY       *
          *         J.COMPUT.CHEM.  14, 1347-1363(1993)        *
          *************** 64 BIT WINDOWS VERSION ***************

  SINCE 1993, STUDENTS AND POSTDOCS WORKING AT IOWA STATE UNIVERSITY
  AND ALSO IN THEIR VARIOUS JOBS AFTER LEAVING ISU HAVE MADE IMPORTANT
  CONTRIBUTIONS TO THE CODE:
     IVANA ADAMOVIC, CHRISTINE AIKENS, YURI ALEXEEV, POOJA ARORA,
     ANDREY ASADCHEV, ROB BELL, PRADIPTA BANDYOPADHYAY, JONATHAN BENTZ,
     BRETT BODE, GALINA CHABAN, WEI CHEN, CHEOL HO CHOI, PAUL DAY,
     ALBERT DEFUSCO, TIM DUDLEY, DMITRI FEDOROV, GRAHAM FLETCHER,
     MARK FREITAG, KURT GLAESEMANN, DAN KEMP, GRANT MERRILL,
     NORIYUKI MINEZAWA, JONATHAN MULLIN, TAKESHI NAGATA,
     SEAN NEDD, HEATHER NETZLOFF, BOSILJKA NJEGIC, RYAN OLSON, MIKE PAK,
     JIM SHOEMAKER, LYUDMILA SLIPCHENKO, SAROM SOK, JIE SONG,
     TETSUYA TAKETSUGU, SIMON WEBB, SOOHAENG YOO, FEDERICO ZAHARIEV

  ADDITIONAL CODE HAS BEEN PROVIDED BY COLLABORATORS IN OTHER GROUPS:
     IOWA STATE UNIVERSITY:
          JOE IVANIC, LAIMUTIS BYTAUTAS, KLAUS RUEDENBERG
     UNIVERSITY OF TOKYO: KIMIHIKO HIRAO, TAKAHITO NAKAJIMA,
          TAKAO TSUNEDA, MUNEAKI KAMIYA, SUSUMU YANAGISAWA,
          KIYOSHI YAGI, MAHITO CHIBA, SEIKEN TOKURA, NAOAKI KAWAKAMI
     UNIVERSITY OF AARHUS: FRANK JENSEN
     UNIVERSITY OF IOWA: VISVALDAS KAIRYS, HUI LI
     NATIONAL INST. OF STANDARDS AND TECHNOLOGY: WALT STEVENS, DAVID GARMER
     UNIVERSITY OF PISA: BENEDETTA MENNUCCI, JACOPO TOMASI
     UNIVERSITY OF MEMPHIS: HENRY KURTZ, PRAKASHAN KORAMBATH
     UNIVERSITY OF ALBERTA: TOBY ZENG, MARIUSZ KLOBUKOWSKI
     UNIVERSITY OF NEW ENGLAND: MARK SPACKMAN
     MIE UNIVERSITY: HIROAKI UMEDA
     MICHIGAN STATE UNIVERSITY:
          KAROL KOWALSKI, MARTA WLOCH, JEFFREY GOUR, JESSE LUTZ,
          WEI LI, PIOTR PIECUCH
     UNIVERSITY OF SILESIA: MONIKA MUSIAL, STANISLAW KUCHARSKI
     FACULTES UNIVERSITAIRES NOTRE-DAME DE LA PAIX:
          OLIVIER QUINET, BENOIT CHAMPAGNE
     UNIVERSITY OF CALIFORNIA - SANTA BARBARA: BERNARD KIRTMAN
     INSTITUTE FOR MOLECULAR SCIENCE:
          KAZUYA ISHIMURA, MICHIO KATOUDA, AND SHIGERU NAGASE
     UNIVERSITY OF NOTRE DAME: DAN CHIPMAN
     KYUSHU UNIVERSITY:
          HARUYUKI NAKANO,
          FENG LONG GU, JACEK KORCHOWIEC, MARCIN MAKOWSKI, AND YURIKO AOKI,
          HIROTOSHI MORI AND EISAKU MIYOSHI
     PENNSYLVANIA STATE UNIVERSITY:
          TZVETELIN IORDANOV, CHET SWALINA, JONATHAN SKONE,
          SHARON HAMMES-SCHIFFER
     WASEDA UNIVERSITY:
          MASATO KOBAYASHI, TOMOKO AKAMA, TSUGUKI TOUMA,
          TAKESHI YOSHIKAWA, YASUHIRO IKABATA, HIROMI NAKAI
     NANJING UNIVERSITY: SHUHUA LI
     UNIVERSITY OF NEBRASKA:
          PEIFENG SU, DEJUN SI, NANDUN THELLAMUREGE, YALI WANG, HUI LI
     UNIVERSITY OF ZURICH:
          ROBERTO PEVERATI, KIM BALDRIDGE
     N. COPERNICUS UNIVERSITY AND JACKSON STATE UNIVERSITY:
          MARIA BARYSZ


 PARALLEL VERSION RUNNING ON     4 PROCESSORS IN     4 NODES.

 EXECUTION OF GAMESS BEGUN Fri Nov 17 13:13:01 2023

            ECHO OF THE FIRST FEW INPUT CARDS -
 INPUT CARD> $CONTRL  scftyp=mcscf runtyp=optimize $END                                     
 INPUT CARD> $basis gbasis=n31 ngauss=6 ndfunc=1 $end                                       
 INPUT CARD>                                                                                
 INPUT CARD>! norder=0 Порядок МО уже не меняется- задан ответ CASSCF исходной геометрии    
 INPUT CARD>! $Guess guess=moread norb=17 norder=0  prtmo=.t. $end                          
 INPUT CARD> $statpt nstep=50 hssend=.t. $end                                               
 INPUT CARD> $FORCE METHOD=SEMINUM NVIB=2 $END                                              
 INPUT CARD> $dEt group=cs  ncore=13 nact=4 neLs=4 SZ=0 nstate=1 $end                       
 INPUT CARD> $DATA                                                                          
 INPUT CARD> C4H6                                                                           
 INPUT CARD>Cs                                                                              
 INPUT CARD>                                                                                
 INPUT CARD>CARBON      6.0     -0.552230614        -0.080695679        -0.735582760        
 INPUT CARD>CARBON      6.0      0.517107777         0.075564270        -1.534451895        
 INPUT CARD>HYDROGEN    1.0     -1.523945524        -0.222690135        -1.205477481        
 INPUT CARD>HYDROGEN    1.0      0.492785102         0.731633825        -2.398470587        
 INPUT CARD>HYDROGEN    1.0      1.449362035        -0.447844877        -1.348735592        
 INPUT CARD> $END                                                                           
    1000000 WORDS OF MEMORY AVAILABLE

     BASIS OPTIONS
     -------------
     GBASIS=N31          IGAUSS=       6      POLAR=POPN31  
     NDFUNC=       1     NFFUNC=       0     DIFFSP=       F
     NPFUNC=       0      DIFFS=       F     BASNAM=        


     RUN TITLE
     ---------
  C4H6                                                                           

 THE POINT GROUP OF THE MOLECULE IS CS      
 THE ORDER OF THE PRINCIPAL AXIS IS     0

 ATOM      ATOMIC                      COORDINATES (BOHR)
           CHARGE         X                   Y                   Z
 CARBON      6.0    -1.0435645425       -0.1524927217        1.3900498577
 CARBON      6.0    -1.0435645425       -0.1524927217       -1.3900498577
 CARBON      6.0     0.9771920046        0.1427957648        2.8996936229
 CARBON      6.0     0.9771920046        0.1427957648       -2.8996936229
 HYDROGEN    1.0    -2.8798394606       -0.4208233353        2.2780221235
 HYDROGEN    1.0    -2.8798394606       -0.4208233353       -2.2780221235
 HYDROGEN    1.0     0.9312288136        1.3825874526        4.5324521990
 HYDROGEN    1.0     0.9312288136        1.3825874526       -4.5324521990
 HYDROGEN    1.0     2.7388971032       -0.8463041025        2.5487406988
 HYDROGEN    1.0     2.7388971032       -0.8463041025       -2.5487406988

          INTERNUCLEAR DISTANCES (ANGS.)
          ------------------------------

                1 CARB       2 CARB       3 CARB       4 CARB       5 HYDR  

   1 CARB    0.0000000    1.4711655 *  1.3439098 *  2.5141518 *  1.0886659 *
   2 CARB    1.4711655 *  0.0000000    2.5141518 *  1.3439098 *  2.1753407 *
   3 CARB    1.3439098 *  2.5141518 *  0.0000000    3.0689038    2.0887983 *
   4 CARB    2.5141518 *  1.3439098 *  3.0689038    0.0000000    3.4295870  
   5 HYDR    1.0886659 *  2.1753407 *  2.0887983 *  3.4295870    0.0000000  
   6 HYDR    2.1753407 *  1.0886659 *  3.4295870    2.0887983 *  2.4109550 *
   7 HYDR    2.1253548 *  3.4020916    1.0851484 *  3.9873422    2.5300532 *
   8 HYDR    3.4020916    2.1253548 *  3.9873422    1.0851484 *  4.2386765  
   9 HYDR    2.1253536 *  2.9129975 *  1.0851478 *  3.0750326    2.9852597 *
  10 HYDR    2.9129975 *  2.1253536 *  3.0750326    1.0851478 *  3.9262268  

                6 HYDR       7 HYDR       8 HYDR       9 HYDR      10 HYDR  

   1 CARB    2.1753407 *  2.1253548 *  3.4020916    2.1253536 *  2.9129975 *
   2 CARB    1.0886659 *  3.4020916    2.1253548 *  2.9129975 *  2.1253536 *
   3 CARB    3.4295870    1.0851484 *  3.9873422    1.0851478 *  3.0750326  
   4 CARB    2.0887983 *  3.9873422    1.0851484 *  3.0750326    1.0851478 *
   5 HYDR    2.4109550 *  2.5300532 *  4.2386765    2.9852597 *  3.9262268  
   6 HYDR    0.0000000    4.2386765    2.5300532 *  3.9262268    2.9852597 *
   7 HYDR    4.2386765    0.0000000    4.7969412    1.8461184 *  4.0432368  
   8 HYDR    2.5300532 *  4.7969412    0.0000000    4.0432368    1.8461184 *
   9 HYDR    3.9262268    1.8461184 *  4.0432368    0.0000000    2.6974712 *
  10 HYDR    2.9852597 *  4.0432368    1.8461184 *  2.6974712 *  0.0000000  

  * ... LESS THAN  3.000


     ATOMIC BASIS SET
     ----------------
 THE CONTRACTED PRIMITIVE FUNCTIONS HAVE BEEN UNNORMALIZED
 THE CONTRACTED BASIS FUNCTIONS ARE NOW NORMALIZED TO UNITY

  SHELL TYPE  PRIMITIVE        EXPONENT          CONTRACTION COEFFICIENT(S)

 CARBON    

      5   S       1          3047.5248800    0.001834737132
      5   S       2           457.3695180    0.014037322813
      5   S       3           103.9486850    0.068842622264
      5   S       4            29.2101553    0.232184443216
      5   S       5             9.2866630    0.467941348435
      5   S       6             3.1639270    0.362311985337

      6   L       7             7.8682723   -0.119332419775    0.068999066591
      6   L       8             1.8812885   -0.160854151696    0.316423960957
      6   L       9             0.5442493    1.143456437840    0.744308290898

      7   L      10             0.1687145    1.000000000000    1.000000000000

      8   D      11             0.8000000    1.000000000000

 CARBON    

     13   S      12          3047.5248800    0.001834737132
     13   S      13           457.3695180    0.014037322813
     13   S      14           103.9486850    0.068842622264
     13   S      15            29.2101553    0.232184443216
     13   S      16             9.2866630    0.467941348435
     13   S      17             3.1639270    0.362311985337

     14   L      18             7.8682723   -0.119332419775    0.068999066591
     14   L      19             1.8812885   -0.160854151696    0.316423960957
     14   L      20             0.5442493    1.143456437840    0.744308290898

     15   L      21             0.1687145    1.000000000000    1.000000000000

     16   D      22             0.8000000    1.000000000000

 HYDROGEN  

     19   S      23            18.7311370    0.033494604338
     19   S      24             2.8253944    0.234726953484
     19   S      25             0.6401217    0.813757326146

     20   S      26             0.1612778    1.000000000000

 HYDROGEN  

     23   S      27            18.7311370    0.033494604338
     23   S      28             2.8253944    0.234726953484
     23   S      29             0.6401217    0.813757326146

     24   S      30             0.1612778    1.000000000000

 HYDROGEN  

     27   S      31            18.7311370    0.033494604338
     27   S      32             2.8253944    0.234726953484
     27   S      33             0.6401217    0.813757326146

     28   S      34             0.1612778    1.000000000000

 TOTAL NUMBER OF BASIS SET SHELLS             =   28
 NUMBER OF CARTESIAN GAUSSIAN BASIS FUNCTIONS =   72
 NUMBER OF ELECTRONS                          =   30
 CHARGE OF MOLECULE                           =    0
 SPIN MULTIPLICITY                            =    1
 NUMBER OF OCCUPIED ORBITALS (ALPHA)          =   15
 NUMBER OF OCCUPIED ORBITALS (BETA )          =   15
 TOTAL NUMBER OF ATOMS                        =   10
 THE NUCLEAR REPULSION ENERGY IS      104.3421852331

     $NEO OPTIONS
     ------------
     NUNIQN=       0     BASNUC=DZSNB        NEOSCF=NONE    
     NEOCI =NONE         NUMULT=       2     NUCST =       1
     NAUXNB=       0     VNUCEX=       F     NUCOPT=       F
     NTAUXB=       0     NEOHSS=       F     HSSINI=READH   
     HSSUPD=POWELLUP     DIRNUC=       F     SYMNUC=       F
     QMTOLN= 0.0E+00     USRDEX=       F
     POSNEO=       F     POSPRP=       F
     NEONCI=       F     LOCORB=       0

     $CONTRL OPTIONS
     ---------------
 SCFTYP=MCSCF        RUNTYP=OPTIMIZE     EXETYP=RUN     
 MPLEVL=       0     CITYP =NONE         CCTYP =NONE         VBTYP =NONE    
 DFTTYP=NONE         TDDFT =NONE    
 MULT  =       1     ICHARG=       0     NZVAR =       0     COORD =UNIQUE  
 PP    =NONE         RELWFN=NONE         LOCAL =NONE         NUMGRD=       F
 ISPHER=      -1     NOSYM =       0     MAXIT =      30     UNITS =ANGS    
 PLTORB=       F     MOLPLT=       F     AIMPAC=       F     FRIEND=        
 NPRINT=       7     IREST =       0     GEOM  =INPUT   
 NORMF =       0     NORMP =       0     ITOL  =      20     ICUT  =       9
 INTTYP=BEST         GRDTYP=BEST         QMTTOL= 1.0E-06

     $SYSTEM OPTIONS
     ---------------
  REPLICATED MEMORY=     1000000 WORDS (ON EVERY NODE).
 DISTRIBUTED MEMDDI=           0 MILLION WORDS IN AGGREGATE,
 MEMDDI DISTRIBUTED OVER   4 PROCESSORS IS           0 WORDS/PROCESSOR.
 TOTAL MEMORY REQUESTED ON EACH PROCESSOR=     1000000 WORDS.
 TIMLIM=      525600.00 MINUTES, OR     365.0 DAYS.
 PARALL= T  BALTYP=  DLB     KDIAG=    0  COREFL= F
 MXSEQ2=     300 MXSEQ3=     150

          ----------------
          PROPERTIES INPUT
          ----------------

     MOMENTS            FIELD           POTENTIAL          DENSITY
 IEMOM =       1   IEFLD =       0   IEPOT =       0   IEDEN =       0
 WHERE =COMASS     WHERE =NUCLEI     WHERE =NUCLEI     WHERE =NUCLEI  
 OUTPUT=BOTH       OUTPUT=BOTH       OUTPUT=BOTH       OUTPUT=BOTH    
 IEMINT=       0   IEFINT=       0                     IEDINT=       0
                                                       MORB  =       0

     -------------------------------
     INTEGRAL TRANSFORMATION OPTIONS
     -------------------------------
     NWORD  =            0
     CUTOFF = 1.0E-09     MPTRAN =       0
     DIRTRF =       F     AOINTS =DUP     

          ----------------------
          MCSCF INPUT PARAMETERS
          ----------------------
 CONVERGER SELECTION: FOCAS = F  SOSCF = T  FULLNR = F  QUD = F  JACOBI = F
 SECULAR EQUATION METHOD CISTEP = ALDET   
 --- GENERAL INPUT OPTIONS:
 MAXIT =      60  MICIT =       5  ACURCY= 1.000E-05
 DAMP  =   0.000  CANONC=       T  ENGTOL= 1.000E-10
 EKT   =       F  NPUNCH=       2  NWORD =         0
 REGENERATE CI AFTER CONVERGENCE = NONE    
 DIABATIZATION AFTER CONVERGENCE =        F
 --- INPUT FOR SOSCF CONVERGER:
 FORS  =       T  NOFO  =       1

          ----------------------
          INTEGRAL INPUT OPTIONS
          ----------------------
 NOPK  =       1 NORDER=       0 SCHWRZ=       T

     ------------------------------------------
     THE POINT GROUP IS CS , NAXIS= 0, ORDER= 2
     ------------------------------------------

     DIMENSIONS OF THE SYMMETRY SUBSPACES ARE
 A'  =   36     A'' =   36

 ..... DONE SETTING UP THE RUN .....
 CPU     0: STEP CPU TIME=     0.02 TOTAL CPU TIME=        0.0 (    0.0 MIN)
 TOTAL WALL CLOCK TIME=        0.0 SECONDS, CPU UTILIZATION IS 100.00%


          -----------------------------
          STATIONARY POINT LOCATION RUN
          -----------------------------

 OBTAINING INITIAL HESSIAN, HESS=GUESS   
 CARTESIAN COORDINATE OPTIMIZATION USING BADGER'S RULE FORCE CONSTANT GUESS

          PARAMETERS CONTROLLING GEOMETRY SEARCH ARE
          METHOD =QA                  UPHESS =BFGS    
          NNEG   =         0          NFRZ   =         0
          NSTEP  =        50          IFOLOW =         1
          HESS   =GUESS               RESTAR =         F
          IHREP  =         0          HSSEND =         T
          NPRT   =         0          NPUN   =         0
          OPTTOL = 1.000E-04          RMIN   = 1.500E-03
          RMAX   = 1.000E-01          RLIM   = 7.000E-02
          DXMAX  = 3.000E-01          PURIFY =         F
          MOVIE  =         F          TRUPD  =         T
          TRMAX  = 5.000E-01          TRMIN  = 5.000E-02
          ITBMAT =         5          STPT   =         F
          STSTEP = 1.000E-02          PROJCT=          T

 BEGINNING GEOMETRY SEARCH POINT NSERCH=   0 ...

 COORDINATES OF SYMMETRY UNIQUE ATOMS (ANGS)
   ATOM   CHARGE       X              Y              Z
 ------------------------------------------------------------
 CARBON      6.0  -0.5522306140  -0.0806956790  -0.7355827600
 CARBON      6.0   0.5171077770   0.0755642700  -1.5344518950
 HYDROGEN    1.0  -1.5239455240  -0.2226901350  -1.2054774810
 HYDROGEN    1.0   0.4927851020   0.7316338250  -2.3984705870
 HYDROGEN    1.0   1.4493620350  -0.4478448770  -1.3487355920
 COORDINATES OF ALL ATOMS ARE (ANGS)
   ATOM   CHARGE       X              Y              Z
 ------------------------------------------------------------
 CARBON      6.0  -0.5522306140  -0.0806956790   0.7355827600
 CARBON      6.0  -0.5522306140  -0.0806956790  -0.7355827600
 CARBON      6.0   0.5171077770   0.0755642700   1.5344518950
 CARBON      6.0   0.5171077770   0.0755642700  -1.5344518950
 HYDROGEN    1.0  -1.5239455240  -0.2226901350   1.2054774810
 HYDROGEN    1.0  -1.5239455240  -0.2226901350  -1.2054774810
 HYDROGEN    1.0   0.4927851020   0.7316338250   2.3984705870
 HYDROGEN    1.0   0.4927851020   0.7316338250  -2.3984705870
 HYDROGEN    1.0   1.4493620350  -0.4478448770   1.3487355920
 HYDROGEN    1.0   1.4493620350  -0.4478448770  -1.3487355920

          ********************
          1 ELECTRON INTEGRALS
          ********************
 TIME TO DO   DIPOLE INTEGRALS=      0.00
 ...... END OF ONE-ELECTRON INTEGRALS ......
 CPU     0: STEP CPU TIME=     0.01 TOTAL CPU TIME=        0.0 (    0.0 MIN)
 TOTAL WALL CLOCK TIME=        0.0 SECONDS, CPU UTILIZATION IS 100.00%

          -------------
          GUESS OPTIONS
          -------------
          GUESS =HUCKEL            NORB  =       0          NORDER=       0
          MIX   =       F          PRTMO =       F          PUNMO =       F
          TOLZ  = 1.0E-08          TOLE  = 1.0E-05
          SYMDEN=       F          PURIFY=       F

 INITIAL GUESS ORBITALS GENERATED BY HUCKEL   ROUTINE.
 HUCKEL GUESS REQUIRES     47668 WORDS.

 GUESS=HUCKEL IS USUALLY A VERY BAD IDEA FOR SCFTYP=MCSCF   
 YOU PROBABLY SHOULD USE GUESS=MOREAD FOR THIS RUN!

 SYMMETRIES FOR INITIAL GUESS ORBITALS FOLLOW.   BOTH SET(S).
    15 ORBITALS ARE OCCUPIED (    4 CORE ORBITALS).
     5=A'       6=A''      7=A'       8=A''      9=A'      10=A'      11=A'' 
    12=A'      13=A''     14=A'      15=A''     16=A'      17=A''     18=A'  
    19=A''     20=A'      21=A''     22=A''     23=A'      24=A'      25=A'  
 ...... END OF INITIAL ORBITAL SELECTION ......
 CPU     0: STEP CPU TIME=     0.01 TOTAL CPU TIME=        0.0 (    0.0 MIN)
 TOTAL WALL CLOCK TIME=        0.0 SECONDS, CPU UTILIZATION IS 100.00%

                    ----------------------
                    AO INTEGRAL TECHNOLOGY
                    ----------------------
     S,P,L SHELL ROTATED AXIS INTEGRALS, REPROGRAMMED BY
        KAZUYA ISHIMURA (IMS) AND JOSE SIERRA (SYNSTAR).
     S,P,D,L SHELL ROTATED AXIS INTEGRALS PROGRAMMED BY
        KAZUYA ISHIMURA (INSTITUTE FOR MOLECULAR SCIENCE).
     S,P,D,F,G SHELL TO TOTAL QUARTET ANGULAR MOMENTUM SUM 5,
        ERIC PROGRAM BY GRAHAM FLETCHER (ELORET AND NASA ADVANCED
        SUPERCOMPUTING DIVISION, AMES RESEARCH CENTER).
     S,P,D,F,G,L SHELL GENERAL RYS QUADRATURE PROGRAMMED BY
        MICHEL DUPUIS (PACIFIC NORTHWEST NATIONAL LABORATORY).

          --------------------
          2 ELECTRON INTEGRALS
          --------------------

 THE -PK- OPTION IS OFF, THE INTEGRALS ARE NOT IN SUPERMATRIX FORM.
 STORING   15000 INTEGRALS/RECORD ON DISK, USING 12 BYTES/INTEGRAL.
 TWO ELECTRON INTEGRAL EVALUATION REQUIRES   90802 WORDS OF MEMORY.
 SCHWARZ INEQUALITY OVERHEAD:      2627 INTEGRALS, T=        0.00
 II,JST,KST,LST =  1  1  1  1 NREC =         1 INTLOC =    1
 II,JST,KST,LST =  2  1  1  1 NREC =         1 INTLOC =    1
 II,JST,KST,LST =  3  1  1  1 NREC =         1 INTLOC =    1
 II,JST,KST,LST =  4  1  1  1 NREC =         1 INTLOC =    1
 II,JST,KST,LST =  5  1  1  1 NREC =         1 INTLOC =    1
 II,JST,KST,LST =  6  1  1  1 NREC =         1 INTLOC =    4
 II,JST,KST,LST =  7  1  1  1 NREC =         1 INTLOC =  305
 II,JST,KST,LST =  8  1  1  1 NREC =         1 INTLOC = 2380
 II,JST,KST,LST =  9  1  1  1 NREC =         2 INTLOC =  183
 II,JST,KST,LST = 10  1  1  1 NREC =         2 INTLOC =  183
 II,JST,KST,LST = 11  1  1  1 NREC =         2 INTLOC =  183
 II,JST,KST,LST = 12  1  1  1 NREC =         2 INTLOC =  183
 II,JST,KST,LST = 13  1  1  1 NREC =         2 INTLOC =  183
 II,JST,KST,LST = 14  1  1  1 NREC =         2 INTLOC =14441
 II,JST,KST,LST = 15  1  1  1 NREC =         9 INTLOC = 5618
 II,JST,KST,LST = 16  1  1  1 NREC =        20 INTLOC =13737
 II,JST,KST,LST = 17  1  1  1 NREC =        50 INTLOC = 3695
 II,JST,KST,LST = 18  1  1  1 NREC =        50 INTLOC = 3695
 II,JST,KST,LST = 19  1  1  1 NREC =        50 INTLOC = 3695
 II,JST,KST,LST = 20  1  1  1 NREC =        57 INTLOC = 7561
 II,JST,KST,LST = 21  1  1  1 NREC =        65 INTLOC =13667
 II,JST,KST,LST = 22  1  1  1 NREC =        65 INTLOC =13667
 II,JST,KST,LST = 23  1  1  1 NREC =        65 INTLOC =13667
 II,JST,KST,LST = 24  1  1  1 NREC =        73 INTLOC = 3378
 II,JST,KST,LST = 25  1  1  1 NREC =        83 INTLOC = 1069
 II,JST,KST,LST = 26  1  1  1 NREC =        83 INTLOC = 1069
 II,JST,KST,LST = 27  1  1  1 NREC =        83 INTLOC = 1069
 II,JST,KST,LST = 28  1  1  1 NREC =        93 INTLOC = 3263
 SCHWARZ INEQUALITY TEST SKIPPED        3895 INTEGRAL BLOCKS.
 TOTAL NUMBER OF NONZERO TWO-ELECTRON INTEGRALS =             1561811
        105 INTEGRAL RECORDS WERE STORED ON DISK FILE  8.
  ...... END OF TWO-ELECTRON INTEGRALS .....
 STEP CPU TIME =     0.15 TOTAL CPU TIME =        0.2 (    0.0 MIN)
 TOTAL WALL CLOCK TIME=        0.2 SECONDS, CPU UTILIZATION IS 100.00%

          -----------------
          MCSCF CALCULATION
          -----------------

 ----- NUCLEAR ENERGY ----- =       104.3421852331

     --------------------------------------------------
          AMES LABORATORY DETERMINANTAL FULL CI
     PROGRAM WRITTEN BY JOE IVANIC AND KLAUS RUEDENBERG
     --------------------------------------------------

 THE POINT GROUP                  =   CS      
 THE STATE SYMMETRY               =   A'      
 NUMBER OF CORE ORBITALS          =   13
 NUMBER OF ACTIVE ORBITALS        =    4
 NUMBER OF ALPHA ELECTRONS        =   15 (   2 ACTIVE)
 NUMBER OF BETA ELECTRONS         =   15 (   2 ACTIVE)
 NUMBER OF OCCUPIED ORBITALS      =   17
 NUMBER OF CI STATES REQUESTED    =    1
 NUMBER OF CI STARTING VECTORS    =    1
 MAX. NO. OF CI EXPANSION VECTORS =   10
 SIZE OF INITIAL CI GUESS MATRIX  =  300
 MAX. NO. OF CI ITERS/STATE       =  100
 CI DIAGONALIZATION CRITERION     = 1.00E-06
 PURE SPIN STATE AVERAGED 1E- AND 2E- DENSITY MATRIX OPTION=.T.
 STATE=   1 DM2 WEIGHT=   1.00000

 CORRELATION ENERGY ANALYSIS      =    F

 SYMMETRIES FOR THE  13 CORE,   4 ACTIVE ARE

     CORE= A'    A''   A'    A''   A'    A''   A'    A''   A'    A'  
           A''   A'    A'' 

   ACTIVE= A'    A''   A'    A'' 
 OPENING FILE DAFL30 WITH      81 LOGICAL RECORDS OF    5184 WORDS
 WITH A MAXIMUM OF         243 PHYSICAL RECORDS OF    2048 WORDS

          ------------------------------
          CASSCF INTEGRAL TRANSFORMATION
          ------------------------------
 AO INTEGRALS WILL BE READ IN FROM DISK...

 NUMBER OF CORE MOLECULAR ORBITALS     =    13
 NUMBER OF OCCUPIED MOLECULAR ORBITALS =    17
 TOTAL NUMBER OF MOLECULAR ORBITALS    =    72
 TOTAL NUMBER OF ATOMIC ORBITALS       =    72
 MEMORY WHICH WOULD BE NEEDED FOR SINGLE PASS TRANSFORMATION =     856288

 ----- CHOOSING THREE STEPS TRANSFORMATION -----
 NUMBER OF WORDS USED      =     295210
 NUMBER OF WORDS AVAILABLE =     999880
 NUMBER OF PASSES          =          4
 PASS #   1 COMPLETED IN         0.0 SECONDS.
 PASS #   2 IS ASSIGNED TO A DIFFERENT PROCESSOR.
 PASS #   3 IS ASSIGNED TO A DIFFERENT PROCESSOR.
 PASS #   4 IS ASSIGNED TO A DIFFERENT PROCESSOR.

 ----- NUCLEAR REPULSION ENERGY =    104.34218523
 ----- FROZEN CORE ENERGY       =   -255.40049779

 ... SYMMETRY ...           CPU =    0.01
 ... (PQ|RS) -> (PQ|KL) ... CPU =    0.03
 ... (PQ|KL) -> (IJ|KL) ... CPU =    0.00

 NUMBER OF (PQ|KL) INTEGRALS WRITTEN      25744
 NUMBER OF (IJ|KL) INTEGRALS WRITTEN         31
 ..... END OF CAS INTEGRAL TRANSFORMATION .....
 CPU     0: STEP CPU TIME=     0.06 TOTAL CPU TIME=        0.2 (    0.0 MIN)
 TOTAL WALL CLOCK TIME=        0.2 SECONDS, CPU UTILIZATION IS 100.00%

     --------------------------------------------------
          AMES LABORATORY DETERMINANTAL FULL CI
     PROGRAM WRITTEN BY JOE IVANIC AND KLAUS RUEDENBERG
     --------------------------------------------------

 THE NUMBER OF DETERMINANTS HAVING SPACE SYMMETRY A' 
 IN POINT GROUP CS   WITH SZ=  0.0 IS             20
 THE DETERMINANT FULL CI REQUIRES          175306 WORDS
 SMALL CI MATRIX, JUST USING INCORE DIAGONALIZATION...

 CI EIGENVECTORS WILL BE LABELED IN GROUP=CS      
 PRINTING ALL NON-ZERO CI COEFFICIENTS

 STATE   1  ENERGY=      -154.4979409327  S=  0.00  SZ=  0.00  SPACE SYM=A'  

ALPHA |BETA  | COEFFICIENT
------|------|------------
 1100 | 1100 |   0.9468932
 1010 | 1010 |  -0.2431742
 0110 | 1001 |  -0.0830937
 1001 | 0110 |  -0.0830937
 1100 | 0110 |  -0.0779310
 0110 | 1100 |  -0.0779310
 0101 | 0101 |  -0.0646502
 1001 | 1001 |  -0.0552711
 0101 | 1010 |  -0.0502517
 1010 | 0101 |  -0.0502517
 1100 | 1001 |   0.0386734
 1001 | 1100 |   0.0386734
 0011 | 1100 |   0.0328420
 1100 | 0011 |   0.0328420
 0011 | 0011 |   0.0244007
 0110 | 0110 |  -0.0125462
 0011 | 0110 |  -0.0075023
 0110 | 0011 |  -0.0075023
 1001 | 0011 |  -0.0015915
 0011 | 1001 |  -0.0015915
 ..... DONE WITH DETERMINANT CI COMPUTATION .....
 CPU     0: STEP CPU TIME=     0.00 TOTAL CPU TIME=        0.2 (    0.0 MIN)
 TOTAL WALL CLOCK TIME=        0.2 SECONDS, CPU UTILIZATION IS 100.00%

     --------------------------------------------------
      ONE AND TWO PARTICLE DENSITY MATRIX COMPUTATION
     PROGRAM WRITTEN BY JOE IVANIC AND KLAUS RUEDENBERG
     --------------------------------------------------

      30383 WORDS WILL BE USED TO FORM THE DENSITIES
 THE DENSITIES ARE STATE AVERAGED OVER   1 ROOT(S)
 STATE=   1   ENERGY=     -154.4979409327   WEIGHT= 1.00000   S=  0.00
 SIEVING THE A'   SYMMETRY NONZERO DENSITY ELEMENTS IN GROUP CS      
         31 NONZERO DM2 ELEMENTS WRITTEN IN       1 RECORDS TO FILE 15
 ..... DONE WITH 1 AND 2 PARTICLE DENSITY MATRIX .....
 CPU     0: STEP CPU TIME=     0.01 TOTAL CPU TIME=        0.3 (    0.0 MIN)
 TOTAL WALL CLOCK TIME=        0.3 SECONDS, CPU UTILIZATION IS 100.00%

          --------------------------------------
          APPROXIMATE SECOND-ORDER MCSCF PROGRAM
          --------------------------------------
          PROGRAM WRITTEN BY G.CHABAN, A.MARQUEZ, AND M.DUPUIS

  NUMBER OF WORDS NEEDED     =      88397
  NUMBER AVAILABLE           =     999880

 ----- GAMMA(IJKL)*(PQ|KL) PRODUCTS ----- CPU TIME =      0.001
 ----- ORBITAL SYMMETRY             ----- CPU TIME =      0.001
 ----- FOCK OPERATORS CONSTRUCTION  ----- CPU TIME =      0.015
 ----- WARNING : CORE-ACTIVE GAP    =    0.15085
     MICIT =   1 ASYMM =    0.440159 ROTMAX =    0.086109
 ----- EFFECTIVE FOCK + ROTATE ORBS ----- CPU TIME =      0.003
     MICIT =   2 ASYMM =    0.118187 ROTMAX =    0.040369
     MICIT =   3 ASYMM =    0.109059 ROTMAX =    0.088884
     MICIT =   4 ASYMM =    0.121412 ROTMAX =    0.080065
     MICIT =   5 ASYMM =    0.155814 ROTMAX =    0.088304
 ..... DONE WITH CASSCF ORBITAL UPDATE .....
 CPU     0: STEP CPU TIME=     0.06 TOTAL CPU TIME=        0.3 (    0.0 MIN)
 TOTAL WALL CLOCK TIME=        0.3 SECONDS, CPU UTILIZATION IS 100.00%

 ITER     TOTAL ENERGY      DEL(E)  LAGRANGIAN ASYMMETRY   SQCDF  MICIT   DAMP
   1     -154.497940933 -0.497940933  0.440159   14   10 8.611E-02  5   0.0000
       ----------START APPROXIMATE SECOND ORDER MCSCF----------
   2     -154.799137166 -0.301196233  0.095525   42    3 1.200E-01  1   0.0000
   3     -154.858315551 -0.059178385  0.074655   44    3 4.061E-01  1   0.0000
   4     -154.881518719 -0.023203168  0.094553   16    1 5.228E-02  1   0.0000
   5     -154.892860881 -0.011342161  0.043669   16    3 1.204E-02  1   0.0000
   6     -154.895230951 -0.002370070  0.025521   44    3 4.622E-03  1   0.0000
   7     -154.896438857 -0.001207906  0.012847   16    3 1.298E-03  1   0.0000
   8     -154.896869585 -0.000430728  0.008960   16    3 3.593E-04  1   0.0000
   9     -154.897038353 -0.000168768  0.003891   23    3 2.124E-04  1   0.0000
  10     -154.897093847 -0.000055494  0.003286   16    3 6.802E-05  1   0.0000
  11     -154.897119369 -0.000025523  0.002206   16    1 2.626E-05  1   0.0000
  12     -154.897128934 -0.000009565  0.003658   16    3 6.634E-06  1   0.0000
  13     -154.897132292 -0.000003358  0.000605   16    3 2.522E-06  1   0.0000
  14     -154.897133455 -0.000001163  0.000662   16    7 9.187E-07  1   0.0000
  15     -154.897134013 -0.000000558  0.000220   23    3 6.093E-07  1   0.0000
  16     -154.897134234 -0.000000221  0.000341   16    3 3.121E-07  1   0.0000
  17     -154.897134318 -0.000000084  0.000130   16    3 1.079E-07  1   0.0000
  18     -154.897134357 -0.000000039  0.000057   18    3 6.619E-08  1   0.0000
  19     -154.897134374 -0.000000018  0.000036   16    3 1.897E-08  1   0.0000
  20     -154.897134380 -0.000000006  0.000025   16    7 6.919E-09  1   0.0000
  21     -154.897134383 -0.000000002  0.000015   25    3 2.847E-09  1   0.0000
  22     -154.897134384 -0.000000001  0.000015   16    3 8.197E-10  1   0.0000
  23     -154.897134384  0.000000000  0.000006   25    3 2.180E-10  1   0.0000

          --------------------
          LAGRANGIAN CONVERGED
          --------------------

 FINAL MCSCF ENERGY IS     -154.8971343840 AFTER  23 ITERATIONS

 -MCCI- BASED ON OPTIMIZED ORBITALS
 ----------------------------------

 PLEASE NOTE: IF THE ACTIVE ORBITALS ARE CANONICALIZED BELOW,
 THE FOLLOWING CI EXPANSION COEFFICIENTS AND THE DENSITY DO NOT
 CORRESPOND TO THE PRINTED ORBITALS.  THE PRINTED EXPANSIONS MATCH
 THE ORBITALS USED DURING THE LAST ITERATION.  IF YOU WISH TO SEE
 CI EXPANSIONS BASED ON THE CANONICAL (OR NATURAL) ORBITALS, YOU
 MUST RUN A CI CALCULATION WITH THAT ORBITAL CHOICE READ IN $VEC.

 CI EIGENVECTORS WILL BE LABELED IN GROUP=CS      
 PRINTING ALL NON-ZERO CI COEFFICIENTS

 STATE   1  ENERGY=      -154.8971343840  S=  0.00  SZ=  0.00  SPACE SYM=A'  

ALPHA |BETA  | COEFFICIENT
------|------|------------
 1100 | 1100 |   0.9195933
 1010 | 1010 |  -0.2692309
 0110 | 1001 |  -0.1332417
 1001 | 0110 |  -0.1332417
 0101 | 0101 |  -0.0930193
 1010 | 0101 |  -0.0881440
 0101 | 1010 |  -0.0881440
 0110 | 0110 |  -0.0773366
 1001 | 1001 |  -0.0639446
 0011 | 0011 |   0.0550728
 1100 | 0011 |   0.0450978
 0011 | 1100 |   0.0450978
 1100 | 1001 |   0.0401718
 1001 | 1100 |   0.0401718
 0110 | 1100 |  -0.0281860
 1100 | 0110 |  -0.0281860
 0011 | 0110 |   0.0076535
 0110 | 0011 |   0.0076535
 0011 | 1001 |  -0.0055068
 1001 | 0011 |  -0.0055068

 DENSITY MATRIX OVER ACTIVE MO-S

             1           2           3           4

    1    1.9076700
    2    0.0000000   1.7822065
    3    0.0591759   0.0000000   0.2199954
    4    0.0000000   0.0771759   0.0000000   0.0901281
    13 FILLED,    4 ACTIVE, AND   55 VIRTUAL ORBITALS  WILL BE CANONICALIZED

          ----------------------
          MCSCF NATURAL ORBITALS
          ----------------------

                      1          2          3          4          5
                  -12.8429   -12.8422   -12.6819   -12.6819    -2.4496
                     A'         A''        A''        A'         A'  
    1  C  1  S    0.704111   0.704346  -0.002985  -0.002937  -0.137688
    2  C  1  S    0.019192   0.019282  -0.000069  -0.000305   0.266310
    3  C  1  X    0.000290   0.000359  -0.000082  -0.000176   0.097404
    4  C  1  Y   -0.000183  -0.000030   0.000023  -0.000041  -0.012904
    5  C  1  Z    0.000070  -0.000367  -0.000147  -0.000078  -0.063365
    6  C  1  S   -0.006828  -0.012680   0.002118   0.002448   0.190338
    7  C  1  X   -0.000327  -0.001544   0.000805   0.000982   0.026484
    8  C  1  Y   -0.000154  -0.000240  -0.000029   0.000181  -0.017405
    9  C  1  Z   -0.000771   0.001303   0.001396   0.000640  -0.021915
   10  C  1 XX   -0.001453  -0.001125  -0.000171  -0.000183   0.003343
   11  C  1 YY   -0.001788  -0.001561   0.000006  -0.000086  -0.010909
   12  C  1 ZZ   -0.001713  -0.000672  -0.000252  -0.000124   0.015562
   13  C  1 XY    0.000048   0.000068  -0.000003   0.000025   0.002374
   14  C  1 XZ    0.000140   0.000302  -0.000040  -0.000068   0.003569
   15  C  1 YZ    0.000047   0.000016  -0.000055  -0.000059   0.002023
   16  C  2  S    0.704111  -0.704346   0.002985  -0.002937  -0.137688
   17  C  2  S    0.019192  -0.019282   0.000069  -0.000305   0.266310
   18  C  2  X    0.000290  -0.000359   0.000082  -0.000176   0.097404
   19  C  2  Y   -0.000183   0.000030  -0.000023  -0.000041  -0.012904
   20  C  2  Z   -0.000070  -0.000367  -0.000147   0.000078   0.063365
   21  C  2  S   -0.006828   0.012680  -0.002118   0.002448   0.190338
   22  C  2  X   -0.000327   0.001544  -0.000805   0.000982   0.026484
   23  C  2  Y   -0.000154   0.000240   0.000029   0.000181  -0.017405
   24  C  2  Z    0.000771   0.001303   0.001396  -0.000640   0.021915
   25  C  2 XX   -0.001453   0.001125   0.000171  -0.000183   0.003343
   26  C  2 YY   -0.001788   0.001561  -0.000006  -0.000086  -0.010909
   27  C  2 ZZ   -0.001713   0.000672   0.000252  -0.000124   0.015562
   28  C  2 XY    0.000048  -0.000068   0.000003   0.000025   0.002374
   29  C  2 XZ   -0.000140   0.000302  -0.000040   0.000068  -0.003569
   30  C  2 YZ   -0.000047   0.000016  -0.000055   0.000059  -0.002023
   31  C  3  S    0.002550   0.002631   0.704191   0.704147  -0.074335
   32  C  3  S   -0.000255  -0.000123   0.019387   0.019274   0.141712
   33  C  3  X    0.000215   0.000236  -0.000282  -0.000317  -0.088799
   34  C  3  Y   -0.000036  -0.000014  -0.000043  -0.000084  -0.023686
   35  C  3  Z    0.000238   0.000207  -0.000380  -0.000238  -0.080980
   36  C  3  S    0.002505   0.003506  -0.008878  -0.008102   0.089043
   37  C  3  X   -0.000935  -0.001076   0.000284   0.000327  -0.020434
   38  C  3  Y   -0.000269  -0.000374   0.000143  -0.000011  -0.008058
   39  C  3  Z   -0.000837  -0.001268   0.000367   0.000065  -0.009034
   40  C  3 XX   -0.000180  -0.000336  -0.001352  -0.001402   0.004176
   41  C  3 YY   -0.000073   0.000013  -0.001643  -0.001781  -0.003772
   42  C  3 ZZ   -0.000120  -0.000153  -0.001455  -0.001579   0.003303
   43  C  3 XY   -0.000003  -0.000056  -0.000031  -0.000032   0.000935
   44  C  3 XZ   -0.000006  -0.000050   0.000224   0.000229   0.009953
   45  C  3 YZ   -0.000015  -0.000016   0.000147   0.000150   0.003638
   46  C  4  S    0.002550  -0.002631  -0.704191   0.704147  -0.074335
   47  C  4  S   -0.000255   0.000123  -0.019387   0.019274   0.141712
   48  C  4  X    0.000215  -0.000236   0.000282  -0.000317  -0.088799
   49  C  4  Y   -0.000036   0.000014   0.000043  -0.000084  -0.023686
   50  C  4  Z   -0.000238   0.000207  -0.000380   0.000238   0.080980
   51  C  4  S    0.002505  -0.003506   0.008878  -0.008102   0.089043
   52  C  4  X   -0.000935   0.001076  -0.000284   0.000327  -0.020434
   53  C  4  Y   -0.000269   0.000374  -0.000143  -0.000011  -0.008058
   54  C  4  Z    0.000837  -0.001268   0.000367  -0.000065   0.009034
   55  C  4 XX   -0.000180   0.000336   0.001352  -0.001402   0.004176
   56  C  4 YY   -0.000073  -0.000013   0.001643  -0.001781  -0.003772
   57  C  4 ZZ   -0.000120   0.000153   0.001455  -0.001579   0.003303
   58  C  4 XY   -0.000003   0.000056   0.000031  -0.000032   0.000935
   59  C  4 XZ    0.000006  -0.000050   0.000224  -0.000229  -0.009953
   60  C  4 YZ    0.000015  -0.000016   0.000147  -0.000150  -0.003638
   61  H  5  S   -0.000404  -0.000393  -0.000074  -0.000050   0.031372
   62  H  5  S    0.001185   0.000861  -0.000209   0.000218  -0.018063
   63  H  6  S   -0.000404   0.000393   0.000074  -0.000050   0.031372
   64  H  6  S    0.001185  -0.000861   0.000209   0.000218  -0.018063
   65  H  7  S   -0.000022  -0.000039  -0.000396  -0.000377   0.013827
   66  H  7  S    0.000252   0.000307   0.001278   0.001318  -0.005911
   67  H  8  S   -0.000022   0.000039   0.000396  -0.000377   0.013827
   68  H  8  S    0.000252  -0.000307  -0.001278   0.001318  -0.005911
   69  H  9  S   -0.000090  -0.000120  -0.000301  -0.000347   0.018343
   70  H  9  S    0.000038  -0.000022   0.001527   0.001224  -0.011566
   71  H 10  S   -0.000090   0.000120   0.000301  -0.000347   0.018343
   72  H 10  S    0.000038   0.000022  -0.001527   0.001224  -0.011566

                      6          7          8          9         10
                   -2.3158    -2.1239    -1.8494    -1.8325    -1.7676
                     A''        A'         A'         A''        A'  
    1  C  1  S   -0.100750   0.050100  -0.030257   0.067805   0.015412
    2  C  1  S    0.198766  -0.099908   0.055189  -0.135715  -0.033209
    3  C  1  X    0.126342   0.153265  -0.199493   0.128825  -0.151135
    4  C  1  Y    0.015370   0.056739   0.019530   0.008829  -0.021075
    5  C  1  Z    0.128101   0.299738   0.222192  -0.081910  -0.078217
    6  C  1  S    0.143711  -0.109587   0.046495  -0.144185  -0.029360
    7  C  1  X    0.014956   0.041436  -0.090700   0.086049  -0.066382
    8  C  1  Y   -0.000652   0.034729   0.020203   0.007059  -0.007008
    9  C  1  Z    0.023385   0.103898   0.096993  -0.029744  -0.032041
   10  C  1 XX    0.010725   0.006822   0.015894  -0.011423   0.002005
   11  C  1 YY   -0.006668   0.003603  -0.003310   0.004334   0.000655
   12  C  1 ZZ   -0.004289  -0.017233  -0.004891   0.001995   0.000902
   13  C  1 XY    0.003272   0.001398   0.003956  -0.002713  -0.000522
   14  C  1 XZ    0.012115   0.009011  -0.005281   0.012971  -0.003411
   15  C  1 YZ    0.000368  -0.002584  -0.002302   0.001111  -0.000277
   16  C  2  S    0.100750   0.050100  -0.030257  -0.067805   0.015412
   17  C  2  S   -0.198766  -0.099908   0.055189   0.135715  -0.033209
   18  C  2  X   -0.126342   0.153265  -0.199493  -0.128825  -0.151135
   19  C  2  Y   -0.015370   0.056739   0.019530  -0.008829  -0.021075
   20  C  2  Z    0.128101  -0.299738  -0.222192  -0.081910   0.078217
   21  C  2  S   -0.143711  -0.109587   0.046495   0.144185  -0.029360
   22  C  2  X   -0.014956   0.041436  -0.090700  -0.086049  -0.066382
   23  C  2  Y    0.000652   0.034729   0.020203  -0.007059  -0.007008
   24  C  2  Z    0.023385  -0.103898  -0.096993  -0.029744   0.032041
   25  C  2 XX   -0.010725   0.006822   0.015894   0.011423   0.002005
   26  C  2 YY    0.006668   0.003603  -0.003310  -0.004334   0.000655
   27  C  2 ZZ    0.004289  -0.017233  -0.004891  -0.001995   0.000902
   28  C  2 XY   -0.003272   0.001398   0.003956   0.002713  -0.000522
   29  C  2 XZ    0.012115  -0.009011   0.005281   0.012971   0.003411
   30  C  2 YZ    0.000368   0.002584   0.002302   0.001111   0.000277
   31  C  3  S   -0.112118  -0.094759   0.010469  -0.078131  -0.063574
   32  C  3  S    0.213550   0.184524  -0.021586   0.151438   0.118791
   33  C  3  X   -0.130491  -0.082177  -0.105007   0.149309   0.222674
   34  C  3  Y   -0.025520  -0.006666   0.052060  -0.014809   0.018737
   35  C  3  Z   -0.099483  -0.047973   0.067717   0.030128   0.147194
   36  C  3  S    0.181300   0.160326  -0.014770   0.151974   0.143496
   37  C  3  X   -0.035857  -0.022727  -0.035720   0.059604   0.090782
   38  C  3  Y   -0.011273  -0.001718   0.020962  -0.005316   0.007298
   39  C  3  Z   -0.033709  -0.023416   0.014385   0.018419   0.051300
   40  C  3 XX    0.008668   0.009057   0.001071   0.003751   0.005653
   41  C  3 YY   -0.005091  -0.002894  -0.000176   0.002123   0.004998
   42  C  3 ZZ    0.001276  -0.001199  -0.003762   0.003393   0.003344
   43  C  3 XY   -0.000300  -0.002863   0.004861  -0.010782  -0.011755
   44  C  3 XZ    0.011374   0.003788   0.000479  -0.005378  -0.010716
   45  C  3 YZ    0.005044   0.004599  -0.000356   0.008696   0.011879
   46  C  4  S    0.112118  -0.094759   0.010469   0.078131  -0.063574
   47  C  4  S   -0.213550   0.184524  -0.021586  -0.151438   0.118791
   48  C  4  X    0.130491  -0.082177  -0.105007  -0.149309   0.222674
   49  C  4  Y    0.025520  -0.006666   0.052060   0.014809   0.018737
   50  C  4  Z   -0.099483   0.047973  -0.067717   0.030128  -0.147194
   51  C  4  S   -0.181300   0.160326  -0.014770  -0.151974   0.143496
   52  C  4  X    0.035857  -0.022727  -0.035720  -0.059604   0.090782
   53  C  4  Y    0.011273  -0.001718   0.020962   0.005316   0.007298
   54  C  4  Z   -0.033709   0.023416  -0.014385   0.018419  -0.051300
   55  C  4 XX   -0.008668   0.009057   0.001071  -0.003751   0.005653
   56  C  4 YY    0.005091  -0.002894  -0.000176  -0.002123   0.004998
   57  C  4 ZZ   -0.001276  -0.001199  -0.003762  -0.003393   0.003344
   58  C  4 XY    0.000300  -0.002863   0.004861   0.010782  -0.011755
   59  C  4 XZ    0.011374  -0.003788  -0.000479  -0.005378   0.010716
   60  C  4 YZ    0.005044  -0.004599   0.000356   0.008696  -0.011879
   61  H  5  S    0.031281  -0.038854   0.184848  -0.151539   0.048702
   62  H  5  S   -0.019942  -0.002845   0.125123  -0.082500   0.039741
   63  H  6  S   -0.031281  -0.038854   0.184848   0.151539   0.048702
   64  H  6  S    0.019942  -0.002845   0.125123   0.082500   0.039741
   65  H  7  S    0.027256   0.038784   0.032337   0.071294   0.124579
   66  H  7  S   -0.011680  -0.009993   0.016053   0.027472   0.075072
   67  H  8  S   -0.027256   0.038784   0.032337  -0.071294   0.124579
   68  H  8  S    0.011680  -0.009993   0.016053  -0.027472   0.075072
   69  H  9  S    0.032346   0.043238  -0.074693   0.137680   0.150378
   70  H  9  S   -0.011917   0.009303  -0.041601   0.072546   0.098148
   71  H 10  S   -0.032346   0.043238  -0.074693  -0.137680   0.150378
   72  H 10  S    0.011917   0.009303  -0.041601  -0.072546   0.098148

                     11         12         13         14         15
                   -1.7136    -1.6263    -1.6047     1.9097     1.7857
                     A''        A''        A'         A'         A'' 
    1  C  1  S    0.007426  -0.021883   0.001117  -0.004821  -0.014136
    2  C  1  S   -0.008526   0.043247   0.000251   0.010378   0.030316
    3  C  1  X    0.239760  -0.092750   0.071539  -0.032535  -0.024867
    4  C  1  Y    0.018741  -0.038489   0.003649   0.309056   0.231051
    5  C  1  Z   -0.003989  -0.002929  -0.123435  -0.034174  -0.040053
    6  C  1  S   -0.035226   0.052958   0.008114  -0.014791   0.089646
    7  C  1  X    0.116674  -0.074867   0.055626  -0.034780  -0.059382
    8  C  1  Y    0.006067   0.000744  -0.028086   0.219204   0.201479
    9  C  1  Z   -0.007241   0.024309  -0.078115  -0.006231  -0.052623
   10  C  1 XX   -0.007682   0.013266  -0.016705   0.004751   0.008820
   11  C  1 YY    0.001359  -0.002233   0.001996   0.002012   0.003919
   12  C  1 ZZ   -0.001440  -0.008759   0.010986  -0.006580  -0.013570
   13  C  1 XY   -0.001810  -0.002364   0.002049   0.008426   0.011097
   14  C  1 XZ    0.020226  -0.010874   0.005133  -0.003128  -0.006181
   15  C  1 YZ    0.001133  -0.005494   0.005309  -0.006504   0.014980
   16  C  2  S   -0.007426   0.021883   0.001117  -0.004821   0.014136
   17  C  2  S    0.008526  -0.043247   0.000251   0.010378  -0.030316
   18  C  2  X   -0.239760   0.092750   0.071539  -0.032535   0.024867
   19  C  2  Y   -0.018741   0.038489   0.003649   0.309056  -0.231051
   20  C  2  Z   -0.003989  -0.002929   0.123435   0.034174  -0.040053
   21  C  2  S    0.035226  -0.052958   0.008114  -0.014791  -0.089646
   22  C  2  X   -0.116674   0.074867   0.055626  -0.034780   0.059382
   23  C  2  Y   -0.006067  -0.000744  -0.028086   0.219204  -0.201479
   24  C  2  Z   -0.007241   0.024309   0.078115   0.006231  -0.052623
   25  C  2 XX    0.007682  -0.013266  -0.016705   0.004751  -0.008820
   26  C  2 YY   -0.001359   0.002233   0.001996   0.002012  -0.003919
   27  C  2 ZZ    0.001440   0.008759   0.010986  -0.006580   0.013570
   28  C  2 XY    0.001810   0.002364   0.002049   0.008426  -0.011097
   29  C  2 XZ    0.020226  -0.010874  -0.005133   0.003128  -0.006181
   30  C  2 YZ    0.001133  -0.005494  -0.005309   0.006504   0.014980
   31  C  3  S    0.028429   0.009849  -0.011911   0.002162   0.000117
   32  C  3  S   -0.051007  -0.021063   0.023861  -0.005947   0.002588
   33  C  3  X   -0.136653   0.191037  -0.119312   0.064276   0.099708
   34  C  3  Y   -0.073071  -0.169654   0.171752   0.172418   0.260826
   35  C  3  Z   -0.200831  -0.147489   0.183739  -0.115734  -0.185147
   36  C  3  S   -0.053813  -0.015920   0.021925   0.003051   0.007125
   37  C  3  X   -0.063457   0.111854  -0.071684   0.051019   0.084773
   38  C  3  Y   -0.033336  -0.080525   0.078180   0.122352   0.218754
   39  C  3  Z   -0.084676  -0.095858   0.116457  -0.095187  -0.161768
   40  C  3 XX   -0.001902   0.018005  -0.019088   0.002727   0.003922
   41  C  3 YY   -0.005136  -0.001932   0.003762  -0.003554  -0.002427
   42  C  3 ZZ   -0.004331  -0.014940   0.017470   0.000771   0.000340
   43  C  3 XY    0.005175  -0.009232   0.007728  -0.012568  -0.012048
   44  C  3 XZ    0.008779  -0.004734   0.004187   0.001612   0.002668
   45  C  3 YZ   -0.010828  -0.009107   0.012213  -0.010612  -0.007920
   46  C  4  S   -0.028429  -0.009849  -0.011911   0.002162  -0.000117
   47  C  4  S    0.051007   0.021063   0.023861  -0.005947  -0.002588
   48  C  4  X    0.136653  -0.191037  -0.119312   0.064276  -0.099708
   49  C  4  Y    0.073071   0.169654   0.171752   0.172418  -0.260826
   50  C  4  Z   -0.200831  -0.147489  -0.183739   0.115734  -0.185147
   51  C  4  S    0.053813   0.015920   0.021925   0.003051  -0.007125
   52  C  4  X    0.063457  -0.111854  -0.071684   0.051019  -0.084773
   53  C  4  Y    0.033336   0.080525   0.078180   0.122352  -0.218754
   54  C  4  Z   -0.084676  -0.095858  -0.116457   0.095187  -0.161768
   55  C  4 XX    0.001902  -0.018005  -0.019088   0.002727  -0.003922
   56  C  4 YY    0.005136   0.001932   0.003762  -0.003554   0.002427
   57  C  4 ZZ    0.004331   0.014940   0.017470   0.000771  -0.000340
   58  C  4 XY   -0.005175   0.009232   0.007728  -0.012568   0.012048
   59  C  4 XZ    0.008779  -0.004734  -0.004187  -0.001612   0.002668
   60  C  4 YZ   -0.010828  -0.009107  -0.012213   0.010612  -0.007920
   61  H  5  S   -0.154131   0.091281  -0.090664   0.008874   0.023261
   62  H  5  S   -0.126472   0.069937  -0.082640   0.027764   0.027120
   63  H  6  S    0.154131  -0.091281  -0.090664   0.008874  -0.023261
   64  H  6  S    0.126472  -0.069937  -0.082640   0.027764  -0.027120
   65  H  7  S   -0.143071  -0.156675   0.183248  -0.018955  -0.016616
   66  H  7  S   -0.097908  -0.114692   0.144726  -0.039341  -0.035626
   67  H  8  S    0.143071   0.156675   0.183248  -0.018955   0.016616
   68  H  8  S    0.097908   0.114692   0.144726  -0.039341   0.035626
   69  H  9  S   -0.058085   0.169922  -0.142929   0.016618   0.018696
   70  H  9  S   -0.043470   0.132235  -0.127020   0.038974   0.040798
   71  H 10  S    0.058085  -0.169922  -0.142929   0.016618  -0.018696
   72  H 10  S    0.043470  -0.132235  -0.127020   0.038974  -0.040798

                     16         17
                    0.2179     0.0866
                     A'         A'' 
    1  C  1  S    0.009853  -0.008472
    2  C  1  S   -0.022407   0.020084
    3  C  1  X    0.015148  -0.046370
    4  C  1  Y   -0.278217   0.477807
    5  C  1  Z    0.067108  -0.056753
    6  C  1  S   -0.017306   0.187853
    7  C  1  X   -0.001564  -0.026042
    8  C  1  Y   -0.216614   0.403235
    9  C  1  Z    0.057622  -0.169159
   10  C  1 XX    0.010844  -0.002708
   11  C  1 YY   -0.002961   0.009158
   12  C  1 ZZ   -0.003659  -0.008370
   13  C  1 XY    0.010101  -0.002267
   14  C  1 XZ   -0.005173  -0.000172
   15  C  1 YZ    0.014990   0.007910
   16  C  2  S    0.009853   0.008472
   17  C  2  S   -0.022407  -0.020084
   18  C  2  X    0.015148   0.046370
   19  C  2  Y   -0.278217  -0.477807
   20  C  2  Z   -0.067108  -0.056753
   21  C  2  S   -0.017306  -0.187853
   22  C  2  X   -0.001564   0.026042
   23  C  2  Y   -0.216614  -0.403235
   24  C  2  Z   -0.057622  -0.169159
   25  C  2 XX    0.010844   0.002708
   26  C  2 YY   -0.002961  -0.009158
   27  C  2 ZZ   -0.003659   0.008370
   28  C  2 XY    0.010101   0.002267
   29  C  2 XZ    0.005173  -0.000172
   30  C  2 YZ   -0.014990   0.007910
   31  C  3  S    0.000156   0.000991
   32  C  3  S    0.003917  -0.002511
   33  C  3  X    0.104435  -0.084819
   34  C  3  Y    0.332584  -0.279037
   35  C  3  Z   -0.218001   0.175792
   36  C  3  S   -0.010322   0.010871
   37  C  3  X    0.066526  -0.046259
   38  C  3  Y    0.280769  -0.224369
   39  C  3  Z   -0.151778   0.111669
   40  C  3 XX    0.000524  -0.000198
   41  C  3 YY    0.000575  -0.001103
   42  C  3 ZZ   -0.000670   0.000418
   43  C  3 XY    0.002151  -0.008433
   44  C  3 XZ   -0.000639   0.001132
   45  C  3 YZ    0.003492  -0.006997
   46  C  4  S    0.000156  -0.000991
   47  C  4  S    0.003917   0.002511
   48  C  4  X    0.104435   0.084819
   49  C  4  Y    0.332584   0.279037
   50  C  4  Z    0.218001   0.175792
   51  C  4  S   -0.010322  -0.010871
   52  C  4  X    0.066526   0.046259
   53  C  4  Y    0.280769   0.224369
   54  C  4  Z    0.151778   0.111669
   55  C  4 XX    0.000524   0.000198
   56  C  4 YY    0.000575   0.001103
   57  C  4 ZZ   -0.000670  -0.000418
   58  C  4 XY    0.002151   0.008433
   59  C  4 XZ    0.000639   0.001132
   60  C  4 YZ   -0.003492  -0.006997
   61  H  5  S    0.040329  -0.016651
   62  H  5  S    0.044761  -0.003544
   63  H  6  S    0.040329   0.016651
   64  H  6  S    0.044761   0.003544
   65  H  7  S    0.015521  -0.026278
   66  H  7  S    0.002921  -0.024414
   67  H  8  S    0.015521   0.026278
   68  H  8  S    0.002921   0.024414
   69  H  9  S   -0.016374   0.025906
   70  H  9  S    0.000528   0.015889
   71  H 10  S   -0.016374  -0.025906
   72  H 10  S    0.000528  -0.015889

          ------------------------
          MCSCF OPTIMIZED ORBITALS
          ------------------------

                      1          2          3          4          5
                  -12.8429   -12.8422   -12.6819   -12.6819    -2.4496
                     A'         A''        A''        A'         A'  
    1  C  1  S    0.704111   0.704346  -0.002985  -0.002937  -0.137688
    2  C  1  S    0.019192   0.019282  -0.000069  -0.000305   0.266310
    3  C  1  X    0.000290   0.000359  -0.000082  -0.000176   0.097404
    4  C  1  Y   -0.000183  -0.000030   0.000023  -0.000041  -0.012904
    5  C  1  Z    0.000070  -0.000367  -0.000147  -0.000078  -0.063365
    6  C  1  S   -0.006828  -0.012680   0.002118   0.002448   0.190338
    7  C  1  X   -0.000327  -0.001544   0.000805   0.000982   0.026484
    8  C  1  Y   -0.000154  -0.000240  -0.000029   0.000181  -0.017405
    9  C  1  Z   -0.000771   0.001303   0.001396   0.000640  -0.021915
   10  C  1 XX   -0.001453  -0.001125  -0.000171  -0.000183   0.003343
   11  C  1 YY   -0.001788  -0.001561   0.000006  -0.000086  -0.010909
   12  C  1 ZZ   -0.001713  -0.000672  -0.000252  -0.000124   0.015562
   13  C  1 XY    0.000048   0.000068  -0.000003   0.000025   0.002374
   14  C  1 XZ    0.000140   0.000302  -0.000040  -0.000068   0.003569
   15  C  1 YZ    0.000047   0.000016  -0.000055  -0.000059   0.002023
   16  C  2  S    0.704111  -0.704346   0.002985  -0.002937  -0.137688
   17  C  2  S    0.019192  -0.019282   0.000069  -0.000305   0.266310
   18  C  2  X    0.000290  -0.000359   0.000082  -0.000176   0.097404
   19  C  2  Y   -0.000183   0.000030  -0.000023  -0.000041  -0.012904
   20  C  2  Z   -0.000070  -0.000367  -0.000147   0.000078   0.063365
   21  C  2  S   -0.006828   0.012680  -0.002118   0.002448   0.190338
   22  C  2  X   -0.000327   0.001544  -0.000805   0.000982   0.026484
   23  C  2  Y   -0.000154   0.000240   0.000029   0.000181  -0.017405
   24  C  2  Z    0.000771   0.001303   0.001396  -0.000640   0.021915
   25  C  2 XX   -0.001453   0.001125   0.000171  -0.000183   0.003343
   26  C  2 YY   -0.001788   0.001561  -0.000006  -0.000086  -0.010909
   27  C  2 ZZ   -0.001713   0.000672   0.000252  -0.000124   0.015562
   28  C  2 XY    0.000048  -0.000068   0.000003   0.000025   0.002374
   29  C  2 XZ   -0.000140   0.000302  -0.000040   0.000068  -0.003569
   30  C  2 YZ   -0.000047   0.000016  -0.000055   0.000059  -0.002023
   31  C  3  S    0.002550   0.002631   0.704191   0.704147  -0.074335
   32  C  3  S   -0.000255  -0.000123   0.019387   0.019274   0.141712
   33  C  3  X    0.000215   0.000236  -0.000282  -0.000317  -0.088799
   34  C  3  Y   -0.000036  -0.000014  -0.000043  -0.000084  -0.023686
   35  C  3  Z    0.000238   0.000207  -0.000380  -0.000238  -0.080980
   36  C  3  S    0.002505   0.003506  -0.008878  -0.008102   0.089043
   37  C  3  X   -0.000935  -0.001076   0.000284   0.000327  -0.020434
   38  C  3  Y   -0.000269  -0.000374   0.000143  -0.000011  -0.008058
   39  C  3  Z   -0.000837  -0.001268   0.000367   0.000065  -0.009034
   40  C  3 XX   -0.000180  -0.000336  -0.001352  -0.001402   0.004176
   41  C  3 YY   -0.000073   0.000013  -0.001643  -0.001781  -0.003772
   42  C  3 ZZ   -0.000120  -0.000153  -0.001455  -0.001579   0.003303
   43  C  3 XY   -0.000003  -0.000056  -0.000031  -0.000032   0.000935
   44  C  3 XZ   -0.000006  -0.000050   0.000224   0.000229   0.009953
   45  C  3 YZ   -0.000015  -0.000016   0.000147   0.000150   0.003638
   46  C  4  S    0.002550  -0.002631  -0.704191   0.704147  -0.074335
   47  C  4  S   -0.000255   0.000123  -0.019387   0.019274   0.141712
   48  C  4  X    0.000215  -0.000236   0.000282  -0.000317  -0.088799
   49  C  4  Y   -0.000036   0.000014   0.000043  -0.000084  -0.023686
   50  C  4  Z   -0.000238   0.000207  -0.000380   0.000238   0.080980
   51  C  4  S    0.002505  -0.003506   0.008878  -0.008102   0.089043
   52  C  4  X   -0.000935   0.001076  -0.000284   0.000327  -0.020434
   53  C  4  Y   -0.000269   0.000374  -0.000143  -0.000011  -0.008058
   54  C  4  Z    0.000837  -0.001268   0.000367  -0.000065   0.009034
   55  C  4 XX   -0.000180   0.000336   0.001352  -0.001402   0.004176
   56  C  4 YY   -0.000073  -0.000013   0.001643  -0.001781  -0.003772
   57  C  4 ZZ   -0.000120   0.000153   0.001455  -0.001579   0.003303
   58  C  4 XY   -0.000003   0.000056   0.000031  -0.000032   0.000935
   59  C  4 XZ    0.000006  -0.000050   0.000224  -0.000229  -0.009953
   60  C  4 YZ    0.000015  -0.000016   0.000147  -0.000150  -0.003638
   61  H  5  S   -0.000404  -0.000393  -0.000074  -0.000050   0.031372
   62  H  5  S    0.001185   0.000861  -0.000209   0.000218  -0.018063
   63  H  6  S   -0.000404   0.000393   0.000074  -0.000050   0.031372
   64  H  6  S    0.001185  -0.000861   0.000209   0.000218  -0.018063
   65  H  7  S   -0.000022  -0.000039  -0.000396  -0.000377   0.013827
   66  H  7  S    0.000252   0.000307   0.001278   0.001318  -0.005911
   67  H  8  S   -0.000022   0.000039   0.000396  -0.000377   0.013827
   68  H  8  S    0.000252  -0.000307  -0.001278   0.001318  -0.005911
   69  H  9  S   -0.000090  -0.000120  -0.000301  -0.000347   0.018343
   70  H  9  S    0.000038  -0.000022   0.001527   0.001224  -0.011566
   71  H 10  S   -0.000090   0.000120   0.000301  -0.000347   0.018343
   72  H 10  S    0.000038   0.000022  -0.001527   0.001224  -0.011566

                      6          7          8          9         10
                   -2.3158    -2.1239    -1.8494    -1.8325    -1.7676
                     A''        A'         A'         A''        A'  
    1  C  1  S   -0.100750   0.050100  -0.030257   0.067805   0.015412
    2  C  1  S    0.198766  -0.099908   0.055189  -0.135715  -0.033209
    3  C  1  X    0.126342   0.153265  -0.199493   0.128825  -0.151135
    4  C  1  Y    0.015370   0.056739   0.019530   0.008829  -0.021075
    5  C  1  Z    0.128101   0.299738   0.222192  -0.081910  -0.078217
    6  C  1  S    0.143711  -0.109587   0.046495  -0.144185  -0.029360
    7  C  1  X    0.014956   0.041436  -0.090700   0.086049  -0.066382
    8  C  1  Y   -0.000652   0.034729   0.020203   0.007059  -0.007008
    9  C  1  Z    0.023385   0.103898   0.096993  -0.029744  -0.032041
   10  C  1 XX    0.010725   0.006822   0.015894  -0.011423   0.002005
   11  C  1 YY   -0.006668   0.003603  -0.003310   0.004334   0.000655
   12  C  1 ZZ   -0.004289  -0.017233  -0.004891   0.001995   0.000902
   13  C  1 XY    0.003272   0.001398   0.003956  -0.002713  -0.000522
   14  C  1 XZ    0.012115   0.009011  -0.005281   0.012971  -0.003411
   15  C  1 YZ    0.000368  -0.002584  -0.002302   0.001111  -0.000277
   16  C  2  S    0.100750   0.050100  -0.030257  -0.067805   0.015412
   17  C  2  S   -0.198766  -0.099908   0.055189   0.135715  -0.033209
   18  C  2  X   -0.126342   0.153265  -0.199493  -0.128825  -0.151135
   19  C  2  Y   -0.015370   0.056739   0.019530  -0.008829  -0.021075
   20  C  2  Z    0.128101  -0.299738  -0.222192  -0.081910   0.078217
   21  C  2  S   -0.143711  -0.109587   0.046495   0.144185  -0.029360
   22  C  2  X   -0.014956   0.041436  -0.090700  -0.086049  -0.066382
   23  C  2  Y    0.000652   0.034729   0.020203  -0.007059  -0.007008
   24  C  2  Z    0.023385  -0.103898  -0.096993  -0.029744   0.032041
   25  C  2 XX   -0.010725   0.006822   0.015894   0.011423   0.002005
   26  C  2 YY    0.006668   0.003603  -0.003310  -0.004334   0.000655
   27  C  2 ZZ    0.004289  -0.017233  -0.004891  -0.001995   0.000902
   28  C  2 XY   -0.003272   0.001398   0.003956   0.002713  -0.000522
   29  C  2 XZ    0.012115  -0.009011   0.005281   0.012971   0.003411
   30  C  2 YZ    0.000368   0.002584   0.002302   0.001111   0.000277
   31  C  3  S   -0.112118  -0.094759   0.010469  -0.078131  -0.063574
   32  C  3  S    0.213550   0.184524  -0.021586   0.151438   0.118791
   33  C  3  X   -0.130491  -0.082177  -0.105007   0.149309   0.222674
   34  C  3  Y   -0.025520  -0.006666   0.052060  -0.014809   0.018737
   35  C  3  Z   -0.099483  -0.047973   0.067717   0.030128   0.147194
   36  C  3  S    0.181300   0.160326  -0.014770   0.151974   0.143496
   37  C  3  X   -0.035857  -0.022727  -0.035720   0.059604   0.090782
   38  C  3  Y   -0.011273  -0.001718   0.020962  -0.005316   0.007298
   39  C  3  Z   -0.033709  -0.023416   0.014385   0.018419   0.051300
   40  C  3 XX    0.008668   0.009057   0.001071   0.003751   0.005653
   41  C  3 YY   -0.005091  -0.002894  -0.000176   0.002123   0.004998
   42  C  3 ZZ    0.001276  -0.001199  -0.003762   0.003393   0.003344
   43  C  3 XY   -0.000300  -0.002863   0.004861  -0.010782  -0.011755
   44  C  3 XZ    0.011374   0.003788   0.000479  -0.005378  -0.010716
   45  C  3 YZ    0.005044   0.004599  -0.000356   0.008696   0.011879
   46  C  4  S    0.112118  -0.094759   0.010469   0.078131  -0.063574
   47  C  4  S   -0.213550   0.184524  -0.021586  -0.151438   0.118791
   48  C  4  X    0.130491  -0.082177  -0.105007  -0.149309   0.222674
   49  C  4  Y    0.025520  -0.006666   0.052060   0.014809   0.018737
   50  C  4  Z   -0.099483   0.047973  -0.067717   0.030128  -0.147194
   51  C  4  S   -0.181300   0.160326  -0.014770  -0.151974   0.143496
   52  C  4  X    0.035857  -0.022727  -0.035720  -0.059604   0.090782
   53  C  4  Y    0.011273  -0.001718   0.020962   0.005316   0.007298
   54  C  4  Z   -0.033709   0.023416  -0.014385   0.018419  -0.051300
   55  C  4 XX   -0.008668   0.009057   0.001071  -0.003751   0.005653
   56  C  4 YY    0.005091  -0.002894  -0.000176  -0.002123   0.004998
   57  C  4 ZZ   -0.001276  -0.001199  -0.003762  -0.003393   0.003344
   58  C  4 XY    0.000300  -0.002863   0.004861   0.010782  -0.011755
   59  C  4 XZ    0.011374  -0.003788  -0.000479  -0.005378   0.010716
   60  C  4 YZ    0.005044  -0.004599   0.000356   0.008696  -0.011879
   61  H  5  S    0.031281  -0.038854   0.184848  -0.151539   0.048702
   62  H  5  S   -0.019942  -0.002845   0.125123  -0.082500   0.039741
   63  H  6  S   -0.031281  -0.038854   0.184848   0.151539   0.048702
   64  H  6  S    0.019942  -0.002845   0.125123   0.082500   0.039741
   65  H  7  S    0.027256   0.038784   0.032337   0.071294   0.124579
   66  H  7  S   -0.011680  -0.009993   0.016053   0.027472   0.075072
   67  H  8  S   -0.027256   0.038784   0.032337  -0.071294   0.124579
   68  H  8  S    0.011680  -0.009993   0.016053  -0.027472   0.075072
   69  H  9  S    0.032346   0.043238  -0.074693   0.137680   0.150378
   70  H  9  S   -0.011917   0.009303  -0.041601   0.072546   0.098148
   71  H 10  S   -0.032346   0.043238  -0.074693  -0.137680   0.150378
   72  H 10  S    0.011917   0.009303  -0.041601  -0.072546   0.098148

                     11         12         13         14         15
                   -1.7136    -1.6263    -1.6047    -1.3417    -1.1735
                     A''        A''        A'         A'         A'' 
    1  C  1  S    0.007426  -0.021883   0.001117  -0.007081  -0.015669
    2  C  1  S   -0.008526   0.043247   0.000251   0.015534   0.034032
    3  C  1  X    0.239760  -0.092750   0.071539  -0.035249  -0.034585
    4  C  1  Y    0.018741  -0.038489   0.003649   0.367625   0.331816
    5  C  1  Z   -0.003989  -0.002929  -0.123435  -0.049523  -0.051704
    6  C  1  S   -0.035226   0.052958   0.008114  -0.010118   0.129293
    7  C  1  X    0.116674  -0.074867   0.055626  -0.033346  -0.063695
    8  C  1  Y    0.006067   0.000744  -0.028086   0.265453   0.286354
    9  C  1  Z   -0.007241   0.024309  -0.078115  -0.020110  -0.089032
   10  C  1 XX   -0.007682   0.013266  -0.016705   0.001960   0.007993
   11  C  1 YY    0.001359  -0.002233   0.001996   0.002673   0.005864
   12  C  1 ZZ   -0.001440  -0.008759   0.010986  -0.005488  -0.015096
   13  C  1 XY   -0.001810  -0.002364   0.002049   0.005705   0.010311
   14  C  1 XZ    0.020226  -0.010874   0.005133  -0.001770  -0.006063
   15  C  1 YZ    0.001133  -0.005494   0.005309  -0.009967   0.016367
   16  C  2  S   -0.007426   0.021883   0.001117  -0.007081   0.015669
   17  C  2  S    0.008526  -0.043247   0.000251   0.015534  -0.034032
   18  C  2  X   -0.239760   0.092750   0.071539  -0.035249   0.034585
   19  C  2  Y   -0.018741   0.038489   0.003649   0.367625  -0.331816
   20  C  2  Z   -0.003989  -0.002929   0.123435   0.049523  -0.051704
   21  C  2  S    0.035226  -0.052958   0.008114  -0.010118  -0.129293
   22  C  2  X   -0.116674   0.074867   0.055626  -0.033346   0.063695
   23  C  2  Y   -0.006067  -0.000744  -0.028086   0.265453  -0.286354
   24  C  2  Z   -0.007241   0.024309   0.078115   0.020110  -0.089032
   25  C  2 XX    0.007682  -0.013266  -0.016705   0.001960  -0.007993
   26  C  2 YY   -0.001359   0.002233   0.001996   0.002673  -0.005864
   27  C  2 ZZ    0.001440   0.008759   0.010986  -0.005488   0.015096
   28  C  2 XY    0.001810   0.002364   0.002049   0.005705  -0.010311
   29  C  2 XZ    0.020226  -0.010874  -0.005133   0.001770  -0.006063
   30  C  2 YZ    0.001133  -0.005494  -0.005309   0.009967   0.016367
   31  C  3  S    0.028429   0.009849  -0.011911   0.002058   0.000335
   32  C  3  S   -0.051007  -0.021063   0.023861  -0.006724   0.001962
   33  C  3  X   -0.136653   0.191037  -0.119312   0.036836   0.078274
   34  C  3  Y   -0.073071  -0.169654   0.171752   0.086008   0.192007
   35  C  3  Z   -0.200831  -0.147489   0.183739  -0.059012  -0.141267
   36  C  3  S   -0.053813  -0.015920   0.021925   0.005479   0.009370
   37  C  3  X   -0.063457   0.111854  -0.071684   0.033234   0.072317
   38  C  3  Y   -0.033336  -0.080525   0.078180   0.050107   0.163190
   39  C  3  Z   -0.084676  -0.095858   0.116457  -0.055254  -0.132781
   40  C  3 XX   -0.001902   0.018005  -0.019088   0.002517   0.003779
   41  C  3 YY   -0.005136  -0.001932   0.003762  -0.003587  -0.002612
   42  C  3 ZZ   -0.004331  -0.014940   0.017470   0.000911   0.000425
   43  C  3 XY    0.005175  -0.009232   0.007728  -0.012712  -0.013625
   44  C  3 XZ    0.008779  -0.004734   0.004187   0.001719   0.002853
   45  C  3 YZ   -0.010828  -0.009107   0.012213  -0.011143  -0.009282
   46  C  4  S   -0.028429  -0.009849  -0.011911   0.002058  -0.000335
   47  C  4  S    0.051007   0.021063   0.023861  -0.006724  -0.001962
   48  C  4  X    0.136653  -0.191037  -0.119312   0.036836  -0.078274
   49  C  4  Y    0.073071   0.169654   0.171752   0.086008  -0.192007
   50  C  4  Z   -0.200831  -0.147489  -0.183739   0.059012  -0.141267
   51  C  4  S    0.053813   0.015920   0.021925   0.005479  -0.009370
   52  C  4  X    0.063457  -0.111854  -0.071684   0.033234  -0.072317
   53  C  4  Y    0.033336   0.080525   0.078180   0.050107  -0.163190
   54  C  4  Z   -0.084676  -0.095858  -0.116457   0.055254  -0.132781
   55  C  4 XX    0.001902  -0.018005  -0.019088   0.002517  -0.003779
   56  C  4 YY    0.005136   0.001932   0.003762  -0.003587   0.002612
   57  C  4 ZZ    0.004331   0.014940   0.017470   0.000911  -0.000425
   58  C  4 XY   -0.005175   0.009232   0.007728  -0.012712   0.013625
   59  C  4 XZ    0.008779  -0.004734  -0.004187  -0.001719   0.002853
   60  C  4 YZ   -0.010828  -0.009107  -0.012213   0.011143  -0.009282
   61  H  5  S   -0.154131   0.091281  -0.090664  -0.001240   0.018960
   62  H  5  S   -0.126472   0.069937  -0.082640   0.015997   0.025646
   63  H  6  S    0.154131  -0.091281  -0.090664  -0.001240  -0.018960
   64  H  6  S    0.126472  -0.069937  -0.082640   0.015997  -0.025646
   65  H  7  S   -0.143071  -0.156675   0.183248  -0.022171  -0.022060
   66  H  7  S   -0.097908  -0.114692   0.144726  -0.038864  -0.040175
   67  H  8  S    0.143071   0.156675   0.183248  -0.022171   0.022060
   68  H  8  S    0.097908   0.114692   0.144726  -0.038864   0.040175
   69  H  9  S   -0.058085   0.169922  -0.142929   0.020112   0.024004
   70  H  9  S   -0.043470   0.132235  -0.127020   0.037666   0.043314
   71  H 10  S    0.058085  -0.169922  -0.142929   0.020112  -0.024004
   72  H 10  S    0.043470  -0.132235  -0.127020   0.037666  -0.043314

                     16         17         18         19         20
                   -1.0275    -0.9350    -0.8394    -0.7584    -0.6861
                     A'         A''        A''        A'         A'  
    1  C  1  S    0.008378  -0.005105  -0.122796  -0.004147  -0.078683
    2  C  1  S   -0.019196   0.012815   0.303483   0.169627   0.223914
    3  C  1  X    0.006746  -0.039654   0.112149  -0.286529   0.003957
    4  C  1  Y   -0.194350   0.414224  -0.023780  -0.037010   0.020058
    5  C  1  Z    0.056735  -0.046388  -0.500043  -0.025318   0.187412
    6  C  1  S   -0.020393   0.163121   1.536805  -0.260702   1.302212
    7  C  1  X   -0.010007  -0.012138   0.283468  -0.706605   0.338315
    8  C  1  Y   -0.156547   0.348128   0.026819  -0.141251  -0.045240
    9  C  1  Z    0.054357  -0.153157  -0.903876  -0.083760   0.535010
   10  C  1 XX    0.011675  -0.004607   0.024541  -0.020377  -0.069485
   11  C  1 YY   -0.002380   0.008053   0.019802   0.007387   0.030056
   12  C  1 ZZ   -0.005154  -0.005132  -0.067476   0.030446   0.018898
   13  C  1 XY    0.011852  -0.004685  -0.006835  -0.000036  -0.001341
   14  C  1 XZ   -0.005780   0.001211  -0.018097   0.115304  -0.028153
   15  C  1 YZ    0.012948   0.004369  -0.014282   0.021552   0.014919
   16  C  2  S    0.008378   0.005105   0.122796  -0.004147  -0.078683
   17  C  2  S   -0.019196  -0.012815  -0.303483   0.169627   0.223914
   18  C  2  X    0.006746   0.039654  -0.112149  -0.286529   0.003957
   19  C  2  Y   -0.194350  -0.414224   0.023780  -0.037010   0.020058
   20  C  2  Z   -0.056735  -0.046388  -0.500043   0.025318  -0.187412
   21  C  2  S   -0.020393  -0.163121  -1.536805  -0.260702   1.302212
   22  C  2  X   -0.010007   0.012138  -0.283468  -0.706605   0.338315
   23  C  2  Y   -0.156547  -0.348128  -0.026819  -0.141251  -0.045240
   24  C  2  Z   -0.054357  -0.153157  -0.903876   0.083760  -0.535010
   25  C  2 XX    0.011675   0.004607  -0.024541  -0.020377  -0.069485
   26  C  2 YY   -0.002380  -0.008053  -0.019802   0.007387   0.030056
   27  C  2 ZZ   -0.005154   0.005132   0.067476   0.030446   0.018898
   28  C  2 XY    0.011852   0.004685   0.006835  -0.000036  -0.001341
   29  C  2 XZ    0.005780   0.001211  -0.018097  -0.115304   0.028153
   30  C  2 YZ   -0.012948   0.004369  -0.014282  -0.021552  -0.014919
   31  C  3  S    0.000679   0.000940   0.028444  -0.061644   0.080947
   32  C  3  S    0.002347  -0.003025  -0.095708   0.263939  -0.202954
   33  C  3  X    0.116966  -0.104925   0.122272  -0.164646   0.052553
   34  C  3  Y    0.364613  -0.330190  -0.051541   0.026547   0.140914
   35  C  3  Z   -0.239659   0.212665   0.069534  -0.157684   0.196107
   36  C  3  S   -0.009265   0.009007  -0.243197   0.789468  -1.298335
   37  C  3  X    0.076968  -0.064005   0.056826  -0.209698   0.252147
   38  C  3  Y    0.302143  -0.267514  -0.090332   0.088572   0.305196
   39  C  3  Z   -0.170424   0.144942   0.195570  -0.144077   0.405610
   40  C  3 XX    0.001174  -0.001068  -0.038630   0.014978   0.052057
   41  C  3 YY   -0.000310  -0.000533   0.004841   0.011049  -0.004394
   42  C  3 ZZ   -0.000462   0.000331   0.036772  -0.027338  -0.029345
   43  C  3 XY   -0.000983  -0.005533   0.006802  -0.007199  -0.012139
   44  C  3 XZ   -0.000226   0.000508   0.018420  -0.005231   0.009894
   45  C  3 YZ    0.000795  -0.005054   0.015720  -0.011225  -0.005555
   46  C  4  S    0.000679  -0.000940  -0.028444  -0.061644   0.080947
   47  C  4  S    0.002347   0.003025   0.095708   0.263939  -0.202954
   48  C  4  X    0.116966   0.104925  -0.122272  -0.164646   0.052553
   49  C  4  Y    0.364613   0.330190   0.051541   0.026547   0.140914
   50  C  4  Z    0.239659   0.212665   0.069534   0.157684  -0.196107
   51  C  4  S   -0.009265  -0.009007   0.243197   0.789468  -1.298335
   52  C  4  X    0.076968   0.064005  -0.056826  -0.209698   0.252147
   53  C  4  Y    0.302143   0.267514   0.090332   0.088572   0.305196
   54  C  4  Z    0.170424   0.144942   0.195570   0.144077  -0.405610
   55  C  4 XX    0.001174   0.001068   0.038630   0.014978   0.052057
   56  C  4 YY   -0.000310   0.000533  -0.004841   0.011049  -0.004394
   57  C  4 ZZ   -0.000462  -0.000331  -0.036772  -0.027338  -0.029345
   58  C  4 XY   -0.000983   0.005533  -0.006802  -0.007199  -0.012139
   59  C  4 XZ    0.000226   0.000508   0.018420   0.005231  -0.009894
   60  C  4 YZ   -0.000795  -0.005054   0.015720   0.011225   0.005555
   61  H  5  S    0.041275  -0.021420  -0.015959  -0.159862  -0.069222
   62  H  5  S    0.050185  -0.009505   0.076019  -0.774984  -0.495518
   63  H  6  S    0.041275   0.021420   0.015959  -0.159862  -0.069222
   64  H  6  S    0.050185   0.009505  -0.076019  -0.774984  -0.495518
   65  H  7  S    0.010424  -0.021910   0.077332  -0.067372  -0.014096
   66  H  7  S   -0.006772  -0.015852   0.152209  -0.257920  -0.121611
   67  H  8  S    0.010424   0.021910  -0.077332  -0.067372  -0.014096
   68  H  8  S   -0.006772   0.015852  -0.152209  -0.257920  -0.121611
   69  H  9  S   -0.011822   0.021083  -0.053229   0.027644   0.109243
   70  H  9  S    0.010026   0.006388  -0.101977  -0.024547   0.613043
   71  H 10  S   -0.011822  -0.021083   0.053229   0.027644   0.109243
   72  H 10  S    0.010026  -0.006388   0.101977  -0.024547   0.613043

                     21         22         23         24         25
                   -0.6325    -0.6291    -0.5721    -0.5690    -0.5100
                     A''        A'         A'         A''        A'' 
    1  C  1  S   -0.088983  -0.042637  -0.028735   0.006972   0.003613
    2  C  1  S    0.280915   0.240764  -0.158016  -0.026443  -0.017325
    3  C  1  X   -0.152540   0.147478  -0.302319  -0.365754  -0.320254
    4  C  1  Y   -0.051204  -0.007346  -0.092932  -0.017961  -0.055540
    5  C  1  Z    0.211238   0.110662   0.212294  -0.102964   0.134787
    6  C  1  S    1.166854   1.104923   0.419849  -0.073743  -0.516629
    7  C  1  X    0.045006   0.304640  -0.114206  -0.659056  -0.739529
    8  C  1  Y   -0.104311   0.107132   0.155167  -0.126737   0.142004
    9  C  1  Z    0.346840   0.466055   0.061299  -0.562362   0.243187
   10  C  1 XX   -0.060773   0.009990  -0.002481   0.010903   0.000759
   11  C  1 YY    0.027639   0.004671   0.016785  -0.001749  -0.005446
   12  C  1 ZZ    0.012673   0.002323  -0.056099   0.002836  -0.000988
   13  C  1 XY   -0.002942   0.000654  -0.043491   0.000806  -0.035592
   14  C  1 XZ    0.011824  -0.024065   0.006141   0.014729   0.004165
   15  C  1 YZ    0.005639  -0.022140  -0.022199  -0.005425  -0.002850
   16  C  2  S    0.088983  -0.042637  -0.028735  -0.006972  -0.003613
   17  C  2  S   -0.280915   0.240764  -0.158016   0.026443   0.017325
   18  C  2  X    0.152540   0.147478  -0.302319   0.365754   0.320254
   19  C  2  Y    0.051204  -0.007346  -0.092932   0.017961   0.055540
   20  C  2  Z    0.211238  -0.110662  -0.212294  -0.102964   0.134787
   21  C  2  S   -1.166854   1.104923   0.419849   0.073743   0.516629
   22  C  2  X   -0.045006   0.304640  -0.114206   0.659056   0.739529
   23  C  2  Y    0.104311   0.107132   0.155167   0.126737  -0.142004
   24  C  2  Z    0.346840  -0.466055  -0.061299  -0.562362   0.243187
   25  C  2 XX    0.060773   0.009990  -0.002481  -0.010903  -0.000759
   26  C  2 YY   -0.027639   0.004671   0.016785   0.001749   0.005446
   27  C  2 ZZ   -0.012673   0.002323  -0.056099  -0.002836   0.000988
   28  C  2 XY    0.002942   0.000654  -0.043491  -0.000806   0.035592
   29  C  2 XZ    0.011824   0.024065  -0.006141   0.014729   0.004165
   30  C  2 YZ    0.005639   0.022140   0.022199  -0.005425  -0.002850
   31  C  3  S    0.044486  -0.013500   0.024023  -0.106247   0.013908
   32  C  3  S   -0.095507   0.192609  -0.229869   0.297116  -0.100020
   33  C  3  X    0.006163   0.349920   0.136692   0.044993   0.071100
   34  C  3  Y    0.129179  -0.072866  -0.220937  -0.011842  -0.266494
   35  C  3  Z    0.204629  -0.038631  -0.090287   0.030007  -0.284199
   36  C  3  S   -0.697710  -0.352293  -0.126919   1.672904   0.181697
   37  C  3  X    0.235804   0.952461   0.116056  -0.154543  -0.161752
   38  C  3  Y    0.285178   0.003909  -0.393314  -0.065750  -0.403022
   39  C  3  Z    0.346811   0.551872  -0.589068  -0.170929  -0.828592
   40  C  3 XX    0.051142   0.010793  -0.042462  -0.026371  -0.017988
   41  C  3 YY   -0.001528   0.001240   0.007345   0.015331   0.012990
   42  C  3 ZZ   -0.041210   0.005341   0.020600  -0.006491   0.008230
   43  C  3 XY   -0.005130   0.023075   0.022003   0.011162   0.008085
   44  C  3 XZ    0.008742   0.024683  -0.012830  -0.021936  -0.019986
   45  C  3 YZ   -0.009148  -0.005088   0.033078  -0.020670   0.039128
   46  C  4  S   -0.044486  -0.013500   0.024023   0.106247  -0.013908
   47  C  4  S    0.095507   0.192609  -0.229869  -0.297116   0.100020
   48  C  4  X   -0.006163   0.349920   0.136692  -0.044993  -0.071100
   49  C  4  Y   -0.129179  -0.072866  -0.220937   0.011842   0.266494
   50  C  4  Z    0.204629   0.038631   0.090287   0.030007  -0.284199
   51  C  4  S    0.697710  -0.352293  -0.126919  -1.672904  -0.181697
   52  C  4  X   -0.235804   0.952461   0.116056   0.154543   0.161752
   53  C  4  Y   -0.285178   0.003909  -0.393314   0.065750   0.403022
   54  C  4  Z    0.346811  -0.551872   0.589068  -0.170929  -0.828592
   55  C  4 XX   -0.051142   0.010793  -0.042462   0.026371   0.017988
   56  C  4 YY    0.001528   0.001240   0.007345  -0.015331  -0.012990
   57  C  4 ZZ    0.041210   0.005341   0.020600   0.006491  -0.008230
   58  C  4 XY    0.005130   0.023075   0.022003  -0.011162  -0.008085
   59  C  4 XZ    0.008742  -0.024683   0.012830  -0.021936  -0.019986
   60  C  4 YZ   -0.009148   0.005088  -0.033078  -0.020670   0.039128
   61  H  5  S   -0.148174   0.025524  -0.039439  -0.005371  -0.051072
   62  H  5  S   -0.886280  -0.159815  -0.525529  -0.442741  -0.738470
   63  H  6  S    0.148174   0.025524  -0.039439   0.005371   0.051072
   64  H  6  S    0.886280  -0.159815  -0.525529   0.442741   0.738470
   65  H  7  S   -0.034039  -0.028343   0.109045  -0.063868   0.095088
   66  H  7  S   -0.302682  -0.302646   0.913045  -0.565497   1.097943
   67  H  8  S    0.034039  -0.028343   0.109045   0.063868  -0.095088
   68  H  8  S    0.302682  -0.302646   0.913045   0.565497  -1.097943
   69  H  9  S    0.086743  -0.013203  -0.091818  -0.108951  -0.017081
   70  H  9  S    0.384899  -0.905793  -0.413992  -0.731484  -0.317006
   71  H 10  S   -0.086743  -0.013203  -0.091818   0.108951   0.017081
   72  H 10  S   -0.384899  -0.905793  -0.413992   0.731484   0.317006

                     26         27         28         29         30
                   -0.5055    -0.4890    -0.4199    -0.3959    -0.3319
                     A'         A''        A'         A'         A'' 
    1  C  1  S   -0.002290  -0.015656  -0.004322   0.022962  -0.025219
    2  C  1  S   -0.338481   0.145405  -0.032811   0.235796  -0.159373
    3  C  1  X   -0.290446   0.279960  -0.175213  -0.226002   0.027185
    4  C  1  Y   -0.111471   0.103202   0.649540   0.017281  -0.011745
    5  C  1  Z   -0.020828   0.365529   0.087018  -0.508866  -0.244856
    6  C  1  S    0.221230   0.635139  -0.028544  -0.058292  -0.656175
    7  C  1  X    0.351408   0.780347   0.135286   0.302345   0.490769
    8  C  1  Y    0.058599   0.191747  -0.539217  -0.003230   0.109115
    9  C  1  Z    0.051200   1.042579  -0.117427   0.808647   1.709331
   10  C  1 XX   -0.050996   0.005712   0.009898  -0.005366  -0.090160
   11  C  1 YY    0.020144  -0.010797   0.019077  -0.045697   0.071853
   12  C  1 ZZ   -0.006310   0.014334  -0.035541   0.132564  -0.035068
   13  C  1 XY    0.002936  -0.009473   0.028008   0.009307  -0.018500
   14  C  1 XZ   -0.041275  -0.012287  -0.008944  -0.029140  -0.037450
   15  C  1 YZ   -0.008266  -0.011898  -0.023891  -0.000396  -0.007401
   16  C  2  S   -0.002290   0.015656  -0.004322   0.022962   0.025219
   17  C  2  S   -0.338481  -0.145405  -0.032811   0.235796   0.159373
   18  C  2  X   -0.290446  -0.279960  -0.175213  -0.226002  -0.027185
   19  C  2  Y   -0.111471  -0.103202   0.649540   0.017281   0.011745
   20  C  2  Z    0.020828   0.365529  -0.087018   0.508866  -0.244856
   21  C  2  S    0.221230  -0.635139  -0.028544  -0.058292   0.656175
   22  C  2  X    0.351408  -0.780347   0.135286   0.302345  -0.490769
[...]
                   Y  0.02474720 -0.00380140  0.00018884 -0.30479243 -0.00125617
                   Z  0.09745214 -0.16714904  0.30232223  0.00004077 -0.33309231

 TRANS. SAYVETZ    X  0.00000000  0.00000000  0.00813291 -0.00025932  0.00000000
                   Y  0.00000000  0.00000000  0.00008537  0.01300695  0.00000000
                   Z  6.86923781 -1.44423369  0.00000000  0.00000000  0.00263626
               TOTAL  6.86923781  1.44423369  0.00813335  0.01300954  0.00263626

   ROT. SAYVETZ    X  5.19106922 -1.05507565  0.00000000  0.00000000 -0.00379331
                   Y  4.13865893 19.69742592  0.00000000  0.00000000 -0.00303587
                   Z  0.00000000  0.00000000  0.00165103  0.10441662  0.00000000
               TOTAL  6.63895303 19.72566279  0.00165103  0.10441662  0.00485858

                         11          12          13          14          15
       FREQUENCY:       728.08      857.43      861.10      927.54     1042.43  
        SYMMETRY:         A''         A''         A'          A'          A'' 
    REDUCED MASS:      1.99124     1.35534     1.33715     2.32627     1.06962
    IR INTENSITY:      0.00000     0.00000     1.54762     0.00039     0.00000

  1   CARBON       X -0.00087531  0.00022716  0.00022845 -0.04887124  0.00024529
                   Y -0.14837819  0.03428177  0.03360631  0.00029293  0.05102666
                   Z  0.00007123  0.00001015 -0.00010222  0.11669901  0.00000351
  2   CARBON       X  0.00087531 -0.00022716  0.00022845 -0.04887124 -0.00024529
                   Y  0.14837819 -0.03428177  0.03360631  0.00029293 -0.05102666
                   Z  0.00007123  0.00001015  0.00010222 -0.11669901  0.00000351
  3   CARBON       X  0.00007944 -0.00049316 -0.00053675  0.02969555  0.00002171
                   Y  0.02116020 -0.10240879 -0.10036516 -0.00025443  0.00489632
                   Z -0.00004336  0.00002475 -0.00008288  0.09429372 -0.00000261
  4   CARBON       X -0.00007944  0.00049316 -0.00053675  0.02969555 -0.00002171
                   Y -0.02116020  0.10240879 -0.10036516 -0.00025443 -0.00489632
                   Z -0.00004336  0.00002475  0.00008288 -0.09429372 -0.00000261
  5   HYDROGEN     X  0.00050628 -0.00017898 -0.00023597 -0.05721073 -0.00290482
                   Y  0.12371745 -0.04662374 -0.04868134  0.00024198 -0.55708761
                   Z  0.00001876  0.00002247 -0.00017753  0.11218599  0.00001122
  6   HYDROGEN     X -0.00050628  0.00017898 -0.00023597 -0.05721073  0.00290482
                   Y -0.12371745  0.04662374 -0.04868134  0.00024198  0.55708761
                   Z  0.00001876  0.00002247  0.00017753 -0.11218599  0.00001122
  7   HYDROGEN     X  0.00228804  0.00232387  0.00206928  0.35109530  0.00104514
                   Y  0.40056588  0.45253641  0.46643414 -0.00138265  0.19973257
                   Z -0.00001134  0.00003558 -0.00010225  0.13144128  0.00000347
  8   HYDROGEN     X -0.00228804 -0.00232387  0.00206928  0.35109530 -0.00104514
                   Y -0.40056588 -0.45253641  0.46643414 -0.00138265 -0.19973257
                   Z -0.00001134  0.00003558  0.00010225 -0.13144128  0.00000347
  9   HYDROGEN     X -0.00133371  0.00200223  0.00205172 -0.06487860 -0.00174492
                   Y -0.22993270  0.38765315  0.37787227  0.00068039 -0.33849280
                   Z -0.00034106 -0.00000494  0.00022143 -0.16893974  0.00002218
 10   HYDROGEN     X  0.00133371 -0.00200223  0.00205172 -0.06487860  0.00174492
                   Y  0.22993270 -0.38765315  0.37787227  0.00068039  0.33849280
                   Z -0.00034106 -0.00000494 -0.00022143  0.16893974  0.00002218

 TRANS. SAYVETZ    X  0.00000000  0.00000000  0.00043165  0.00137919  0.00000000
                   Y  0.00000000  0.00000000  0.00148917 -0.00000385  0.00000000
                   Z -0.00000365  0.00094456  0.00000000  0.00000000  0.00009592
               TOTAL  0.00000365  0.00094456  0.00155047  0.00137920  0.00009592

   ROT. SAYVETZ    X -0.04159191  0.00783418  0.00000000  0.00000000  0.00585985
                   Y  0.00032845  0.00406747  0.00000000  0.00000000 -0.00078690
                   Z  0.00000000  0.00000000 -0.00729851  0.00029684  0.00000000
               TOTAL  0.04159320  0.00882715  0.00729851  0.00029684  0.00591245

                         16          17          18          19          20
       FREQUENCY:      1046.47     1134.77     1197.10     1400.47     1448.77  
        SYMMETRY:         A'          A'          A''         A''         A'  
    REDUCED MASS:      1.07434     1.37305     1.58218     1.44496     1.35706
    IR INTENSITY:      0.81313     0.00052     0.10528     0.03660     0.00780

  1   CARBON       X -0.00027666 -0.06035244  0.04728243  0.07615947 -0.07442654
                   Y -0.05286007  0.00034866 -0.00025360 -0.00040180  0.00037222
                   Z  0.00000483  0.06623534 -0.06883459 -0.00665908 -0.00957811
  2   CARBON       X -0.00027666 -0.06035244 -0.04728243 -0.07615947 -0.07442654
                   Y -0.05286007  0.00034866  0.00025360  0.00040180  0.00037222
                   Z -0.00000483 -0.06623534 -0.06883459 -0.00665908  0.00957811
  3   CARBON       X -0.00002180  0.05878726 -0.00418784 -0.08887059  0.07785026
                   Y -0.00467725 -0.00033347  0.00004698  0.00048291 -0.00038281
                   Z  0.00000994 -0.02476848  0.09757547 -0.00423802  0.00374411
  4   CARBON       X -0.00002180  0.05878726  0.00418784  0.08887059  0.07785026
                   Y -0.00467725 -0.00033347 -0.00004698 -0.00048291 -0.00038281
                   Z -0.00000994  0.02476848  0.09757547 -0.00423802 -0.00374411
  5   HYDROGEN     X  0.00270612  0.08677389 -0.04167866  0.26724238 -0.27958469
                   Y  0.52436350 -0.00041673  0.00014299 -0.00145628  0.00144779
                   Z  0.00000867  0.38869582 -0.25373277  0.39508672 -0.42815703
  6   HYDROGEN     X  0.00270612  0.08677389  0.04167866 -0.26724238 -0.27958469
                   Y  0.52436350 -0.00041673 -0.00014299  0.00145628  0.00144779
                   Z -0.00000867 -0.38869582 -0.25373277  0.39508672  0.42815703
  7   HYDROGEN     X -0.00112398 -0.25147257  0.38432574 -0.04353643  0.06183847
                   Y -0.21604833  0.00125882 -0.00202810  0.00019326 -0.00033475
                   Z  0.00000546 -0.05166415  0.13983308 -0.00799329  0.01111587
  8   HYDROGEN     X -0.00112398 -0.25147257 -0.38432574  0.04353643  0.06183847
                   Y -0.21604833  0.00125882  0.00202810 -0.00019326 -0.00033475
                   Z -0.00000546  0.05166415  0.13983308 -0.00799329 -0.01111587
  9   HYDROGEN     X  0.00196888  0.18268173 -0.11823145 -0.19092669  0.17679216
                   Y  0.37541996 -0.00102577  0.00064001  0.00101413 -0.00098861
                   Z  0.00003844  0.30685125 -0.22835778 -0.25756773  0.24503893
 10   HYDROGEN     X  0.00196888  0.18268173  0.11823145  0.19092669  0.17679216
                   Y  0.37541996 -0.00102577 -0.00064001 -0.00101413 -0.00098861
                   Z -0.00003844 -0.30685125 -0.22835778 -0.25756773 -0.24503893

 TRANS. SAYVETZ    X -0.00000525 -0.00131679  0.00000000  0.00000000 -0.00037972
                   Y -0.00272492 -0.00000566  0.00000000  0.00000000 -0.00000326
                   Z  0.00000000  0.00000000 -0.00008999 -0.00045203  0.00000000
               TOTAL  0.00272492  0.00131680  0.00008999  0.00045203  0.00037973

   ROT. SAYVETZ    X  0.00000000  0.00000000 -0.00201503 -0.00043742  0.00000000
                   Y  0.00000000  0.00000000 -0.00216615  0.00109936  0.00000000
                   Z  0.01287166 -0.00168676  0.00000000  0.00000000  0.00158471
               TOTAL  0.01287166  0.00168676  0.00295847  0.00118319  0.00158471

                         21          22          23          24          25
       FREQUENCY:      1568.60     1593.05     1755.12     1782.68     3323.01  
        SYMMETRY:         A''         A'          A'          A''         A'' 
    REDUCED MASS:      1.18677     1.41916     2.75255     2.61231     1.07832
    IR INTENSITY:      0.01959     0.09943     0.05277     0.01543     0.09576

  1   CARBON       X  0.05740447 -0.02958325  0.06454741 -0.09729784 -0.04695064
                   Y -0.00028989  0.00016574 -0.00035701  0.00051343  0.00024199
                   Z  0.05414913 -0.10729087  0.10690333 -0.07624022  0.02150514
  2   CARBON       X -0.05740447 -0.02958325  0.06454741  0.09729784  0.04695064
                   Y  0.00028989  0.00016574 -0.00035701 -0.00051343 -0.00024199
                   Z  0.05414913  0.10729087 -0.10690333 -0.07624022  0.02150514
  3   CARBON       X  0.02463016 -0.02449387 -0.08427859  0.08766625 -0.00996162
                   Y -0.00012320  0.00011561  0.00045875 -0.00046384  0.00005189
                   Z  0.00494481  0.01406021 -0.07832182  0.07051846 -0.01440150
  4   CARBON       X -0.02463016 -0.02449387 -0.08427859 -0.08766625  0.00996162
                   Y  0.00012320  0.00011561  0.00045875  0.00046384 -0.00005189
                   Z  0.00494481 -0.01406021  0.07832182  0.07051846 -0.01440150
  5   HYDROGEN     X -0.10873808  0.12610851 -0.03123639  0.03886223  0.55787935
                   Y  0.00054948 -0.00066812  0.00014646 -0.00017757 -0.00289248
                   Z -0.30831789  0.21603045 -0.11549989  0.24718269 -0.25941383
  6   HYDROGEN     X  0.10873808  0.12610851 -0.03123639 -0.03886223 -0.55787935
                   Y -0.00054948 -0.00066812  0.00014646  0.00017757  0.00289248
                   Z -0.30831789 -0.21603045  0.11549989  0.24718269 -0.25941383
  7   HYDROGEN     X -0.41639275  0.43076467  0.21975969 -0.21318793 -0.02936036
                   Y  0.00211245 -0.00224064 -0.00111151  0.00107132  0.00014769
                   Z -0.05306012  0.07151663 -0.05223980  0.05049780  0.23523110
  8   HYDROGEN     X  0.41639275  0.43076467  0.21975969  0.21318793  0.02936036
                   Y -0.00211245 -0.00224064 -0.00111151 -0.00107132 -0.00014769
                   Z -0.05306012 -0.07151663  0.05223980  0.05049780  0.23523110
  9   HYDROGEN     X -0.11869984  0.08690307  0.04665565 -0.01295055  0.14945917
                   Y  0.00054713 -0.00043556 -0.00024631  0.00004629 -0.00077666
                   Z -0.34245705  0.27988030  0.29206210 -0.22953340 -0.06037304
 10   HYDROGEN     X  0.11869984  0.08690307  0.04665565  0.01295055 -0.14945917
                   Y -0.00054713 -0.00043556 -0.00024631 -0.00004629  0.00077666
                   Z -0.34245705 -0.27988030 -0.29206210 -0.22953340 -0.06037304

 TRANS. SAYVETZ    X  0.00000000 -0.00022318  0.00049016  0.00000000  0.00000000
                   Y  0.00000000  0.00001149  0.00000028  0.00000000  0.00000000
                   Z -0.00043056  0.00000000  0.00000000  0.00003846  0.00005247
               TOTAL  0.00043056  0.00022348  0.00049016  0.00003846  0.00005247

   ROT. SAYVETZ    X  0.00060283  0.00000000  0.00000000  0.00002334  0.00005286
                   Y  0.00205215  0.00000000  0.00000000 -0.00162037 -0.00013463
                   Z  0.00000000 -0.00016562  0.00047132  0.00000000  0.00000000
               TOTAL  0.00213886  0.00016562  0.00047132  0.00162054  0.00014464

                         26          27          28          29          30
       FREQUENCY:      3334.85     3335.95     3350.72     3412.90     3419.81  
        SYMMETRY:         A'          A''         A'          A''         A'  
    REDUCED MASS:      1.06239     1.06892     1.08648     1.11676     1.11654
    IR INTENSITY:      0.94528     0.42128     0.21102     0.74510     0.41374

  1   CARBON       X -0.02629804 -0.02499595 -0.04597380  0.00666059 -0.00727686
                   Y  0.00013693  0.00012751  0.00024101 -0.00003568  0.00003768
                   Z  0.01548192  0.00552113  0.01900845 -0.00258054  0.00383726
  2   CARBON       X -0.02629804  0.02499595 -0.04597380 -0.00666059 -0.00727686
                   Y  0.00013693 -0.00012751  0.00024101  0.00003568  0.00003768
                   Z -0.01548192  0.00552113 -0.01900845 -0.00258054 -0.00383726
  3   CARBON       X -0.02621644  0.03857721  0.02628153  0.03792702 -0.04010473
                   Y  0.00013588 -0.00019497 -0.00014084 -0.00019047  0.00020672
                   Z -0.02678861  0.02136299  0.01128572 -0.05429050  0.05246750
  4   CARBON       X -0.02621644 -0.03857721  0.02628153 -0.03792702 -0.04010473
                   Y  0.00013588  0.00019497 -0.00014084  0.00019047  0.00020672
                   Z  0.02678861  0.02136299 -0.01128572 -0.05429050 -0.05246750
  5   HYDROGEN     X  0.33226677  0.24440609  0.50447819 -0.07117202  0.07957892
                   Y -0.00171881 -0.00127209 -0.00259742  0.00036558 -0.00041654
                   Z -0.15828787 -0.10898672 -0.23923147  0.03195053 -0.03641873
  6   HYDROGEN     X  0.33226677 -0.24440609  0.50447819  0.07117202  0.07957892
                   Y -0.00171881  0.00127209 -0.00259742 -0.00036558 -0.00041654
                   Z  0.15828787 -0.10898672  0.23923147  0.03195053  0.03641873
  7   HYDROGEN     X -0.05374526  0.04894490  0.02454151 -0.04927268  0.04677667
                   Y  0.00026968 -0.00025644 -0.00012378  0.00023135 -0.00022612
                   Z  0.43662502 -0.38806999 -0.21146478  0.49467473 -0.46422714
  8   HYDROGEN     X -0.05374526 -0.04894490  0.02454151  0.04927268  0.04677667
                   Y  0.00026968  0.00025644 -0.00012378 -0.00023135 -0.00022612
                   Z -0.43662502 -0.38806999  0.21146478  0.49467473  0.46422714
  9   HYDROGEN     X  0.34686332 -0.45744204 -0.29448367 -0.40916175  0.43795309
                   Y -0.00180081  0.00236591  0.00152651  0.00211294 -0.00226945
                   Z -0.13781851  0.17690191  0.11457958  0.15050706 -0.16192846
 10   HYDROGEN     X  0.34686332  0.45744204 -0.29448367  0.40916175  0.43795309
                   Y -0.00180081 -0.00236591  0.00152651 -0.00211294 -0.00226945
                   Z  0.13781851  0.17690191 -0.11457958  0.15050706  0.16192846

 TRANS. SAYVETZ    X  0.00020941  0.00000000  0.00012818  0.00000000  0.00029052
                   Y -0.00000333  0.00000000 -0.00000381  0.00000000 -0.00000434
                   Z  0.00000000 -0.00010127  0.00000000 -0.00004335  0.00000000
               TOTAL  0.00020944  0.00010127  0.00012824  0.00004335  0.00029055

   ROT. SAYVETZ    X  0.00000000 -0.00022936  0.00000000 -0.00013398  0.00000000
                   Y  0.00000000  0.00042631  0.00000000  0.00124205  0.00000000
                   Z -0.00009395  0.00000000 -0.00026250  0.00000000  0.00004797
               TOTAL  0.00009395  0.00048410  0.00026250  0.00124926  0.00004797

 REFERENCE ON SAYVETZ CONDITIONS - A. SAYVETZ, J.CHEM.PHYS., 7, 383-389(1939).

 NOTE - THE MODES J,K ARE ORTHONORMALIZED ACCORDING TO
 SUM ON I   M(I) * (X(I,J)*X(I,K) + Y(I,J)*Y(I,K) + Z(I,J)*Z(I,K)) = DELTA(J,K)

  MODE FREQ(CM**-1)  SYMMETRY  RED. MASS  IR INTENS.
     1     102.480    A''      1.481115    0.000000
     2      37.103    A'       2.149959    0.000356
     3       9.518    A''      3.526373    0.000000
     4       0.838    A'       5.401988    0.000009
     5       0.417    A'       5.396340    0.000028
     6       2.028    A''      5.095370    0.000004
     7      10.682    A''      3.167502    0.000067
     8     313.360    A'       2.620823    0.000374
     9     514.771    A'       1.228441    0.261434
    10     602.650    A''      2.098157    0.068447
    11     728.080    A''      1.991238    0.000000
    12     857.430    A''      1.355342    0.000000
    13     861.104    A'       1.337150    1.547618
    14     927.544    A'       2.326273    0.000388
    15    1042.430    A''      1.069616    0.000000
    16    1046.467    A'       1.074338    0.813133
    17    1134.773    A'       1.373045    0.000523
    18    1197.104    A''      1.582179    0.105284
    19    1400.468    A''      1.444963    0.036598
    20    1448.766    A'       1.357064    0.007799
    21    1568.598    A''      1.186768    0.019590
    22    1593.046    A'       1.419163    0.099427
    23    1755.123    A'       2.752549    0.052775
    24    1782.675    A''      2.612312    0.015434
    25    3323.008    A''      1.078316    0.095764
    26    3334.849    A'       1.062390    0.945285
    27    3335.949    A''      1.068922    0.421280
    28    3350.722    A'       1.086482    0.211025
    29    3412.904    A''      1.116758    0.745097
    30    3419.810    A'       1.116540    0.413742

     -------------------------------
     THERMOCHEMISTRY AT T=  298.15 K
     -------------------------------

 USING IDEAL GAS, RIGID ROTOR, HARMONIC NORMAL MODE APPROXIMATIONS.
 P=  1.01325E+05 PASCAL.
 ALL FREQUENCIES ARE SCALED BY   1.00000
 THE MOMENTS OF INERTIA ARE (IN AMU*BOHR**2)
     84.43600   320.68731   405.12331
 THE ROTATIONAL SYMMETRY NUMBER IS  1.0
 THE ROTATIONAL CONSTANTS ARE (IN GHZ)
     21.35450     5.62257     4.45071
   1 IMAGINARY FREQUENCY VIBRATION(S) IS(ARE) EXCLUDED
     FROM THE FOLLOWING THERMOCHEMICAL ANALYSIS.
 THE HARMONIC ZERO POINT ENERGY IS (SCALED BY   1.000)
        0.088738 HARTREE/MOLECULE    19475.815611 CM**-1/MOLECULE 
       55.684207 KCAL/MOL              232.982722 KJ/MOL

               Q               LN Q
 ELEC.     1.00000E+00       0.000000
 TRANS.    1.56175E+07      16.563900
 ROT.      3.74921E+04      10.531885
 VIB.      1.63154E+00       0.489525
 TOT.      9.55319E+11      27.585311

              E         H         G         CV        CP        S
           KJ/MOL    KJ/MOL    KJ/MOL   J/MOL-K   J/MOL-K   J/MOL-K
 ELEC.      0.000     0.000     0.000     0.000     0.000     0.000
 TRANS.     3.718     6.197   -41.061    12.472    20.786   158.505
 ROT.       3.718     3.718   -26.108    12.472    12.472   100.038
 VIB.     236.071   236.071   231.769    32.354    32.354    14.429
 TOTAL    243.508   245.987   164.600    57.298    65.612   272.972
 VIB. THERMAL CORRECTION E(T)-E(0) = H(T)-H(0) =  3088.529 J/MOL

              E         H         G         CV        CP        S
         KCAL/MOL  KCAL/MOL  KCAL/MOL CAL/MOL-K CAL/MOL-K CAL/MOL-K
 ELEC.      0.000     0.000     0.000     0.000     0.000     0.000
 TRANS.     0.889     1.481    -9.814     2.981     4.968    37.884
 ROT.       0.889     0.889    -6.240     2.981     2.981    23.910
 VIB.      56.422    56.422    55.394     7.733     7.733     3.449
 TOTAL     58.200    58.792    39.340    13.694    15.682    65.242
 VIB. THERMAL CORRECTION E(T)-E(0) = H(T)-H(0) =   738.176 CAL/MOL
 ......END OF NORMAL COORDINATE ANALYSIS......
 CPU     0: STEP CPU TIME=     0.00 TOTAL CPU TIME=      109.7 (    1.8 MIN)
 TOTAL WALL CLOCK TIME=      109.7 SECONDS, CPU UTILIZATION IS 100.00%
                   999614  WORDS OF DYNAMIC MEMORY USED
 EXECUTION OF GAMESS TERMINATED NORMALLY Fri Nov 17 13:14:50 2023
 DDI: 1152320 bytes (1.1 MB / 0 MWords) used by master data server.

 ----------------------------------------
 CPU timing information for all processes
 ========================================
 0: 81.089319 + 18.111716 = 99.201035
 1: 71.557658 + 18.408118 = 89.965776
 2: 74.209675 + 18.220916 = 92.430591
 3: 70.590452 + 19.344124 = 89.934576
 4: 16.988508 + 1.669210 = 18.657718
 5: 3.135620 + 0.343202 = 3.478822
 6: 3.432022 + 0.390002 = 3.822024
 7: 3.073219 + 0.265201 = 3.338420
 ----------------------------------------
           Disk usage (in bytes)       
 ========================================
 ----------------------------------------
            Local date and time          
 ========================================
17.11.2023 - 13:14:56.79                          
