          ******************************************************
          *         GAMESS VERSION =  1 MAY 2013 (R1)          *
          *             FROM IOWA STATE UNIVERSITY             *
          * M.W.SCHMIDT, K.K.BALDRIDGE, J.A.BOATZ, S.T.ELBERT, *
          *   M.S.GORDON, J.H.JENSEN, S.KOSEKI, N.MATSUNAGA,   *
          *          K.A.NGUYEN, S.J.SU, T.L.WINDUS,           *
          *       TOGETHER WITH M.DUPUIS, J.A.MONTGOMERY       *
          *         J.COMPUT.CHEM.  14, 1347-1363(1993)        *
          *************** 64 BIT WINDOWS VERSION ***************

  SINCE 1993, STUDENTS AND POSTDOCS WORKING AT IOWA STATE UNIVERSITY
  AND ALSO IN THEIR VARIOUS JOBS AFTER LEAVING ISU HAVE MADE IMPORTANT
  CONTRIBUTIONS TO THE CODE:
     IVANA ADAMOVIC, CHRISTINE AIKENS, YURI ALEXEEV, POOJA ARORA,
     ANDREY ASADCHEV, ROB BELL, PRADIPTA BANDYOPADHYAY, JONATHAN BENTZ,
     BRETT BODE, GALINA CHABAN, WEI CHEN, CHEOL HO CHOI, PAUL DAY,
     ALBERT DEFUSCO, TIM DUDLEY, DMITRI FEDOROV, GRAHAM FLETCHER,
     MARK FREITAG, KURT GLAESEMANN, DAN KEMP, GRANT MERRILL,
     NORIYUKI MINEZAWA, JONATHAN MULLIN, TAKESHI NAGATA,
     SEAN NEDD, HEATHER NETZLOFF, BOSILJKA NJEGIC, RYAN OLSON, MIKE PAK,
     JIM SHOEMAKER, LYUDMILA SLIPCHENKO, SAROM SOK, JIE SONG,
     TETSUYA TAKETSUGU, SIMON WEBB, SOOHAENG YOO, FEDERICO ZAHARIEV

  ADDITIONAL CODE HAS BEEN PROVIDED BY COLLABORATORS IN OTHER GROUPS:
     IOWA STATE UNIVERSITY:
          JOE IVANIC, LAIMUTIS BYTAUTAS, KLAUS RUEDENBERG
     UNIVERSITY OF TOKYO: KIMIHIKO HIRAO, TAKAHITO NAKAJIMA,
          TAKAO TSUNEDA, MUNEAKI KAMIYA, SUSUMU YANAGISAWA,
          KIYOSHI YAGI, MAHITO CHIBA, SEIKEN TOKURA, NAOAKI KAWAKAMI
     UNIVERSITY OF AARHUS: FRANK JENSEN
     UNIVERSITY OF IOWA: VISVALDAS KAIRYS, HUI LI
     NATIONAL INST. OF STANDARDS AND TECHNOLOGY: WALT STEVENS, DAVID GARMER
     UNIVERSITY OF PISA: BENEDETTA MENNUCCI, JACOPO TOMASI
     UNIVERSITY OF MEMPHIS: HENRY KURTZ, PRAKASHAN KORAMBATH
     UNIVERSITY OF ALBERTA: TOBY ZENG, MARIUSZ KLOBUKOWSKI
     UNIVERSITY OF NEW ENGLAND: MARK SPACKMAN
     MIE UNIVERSITY: HIROAKI UMEDA
     MICHIGAN STATE UNIVERSITY:
          KAROL KOWALSKI, MARTA WLOCH, JEFFREY GOUR, JESSE LUTZ,
          WEI LI, PIOTR PIECUCH
     UNIVERSITY OF SILESIA: MONIKA MUSIAL, STANISLAW KUCHARSKI
     FACULTES UNIVERSITAIRES NOTRE-DAME DE LA PAIX:
          OLIVIER QUINET, BENOIT CHAMPAGNE
     UNIVERSITY OF CALIFORNIA - SANTA BARBARA: BERNARD KIRTMAN
     INSTITUTE FOR MOLECULAR SCIENCE:
          KAZUYA ISHIMURA, MICHIO KATOUDA, AND SHIGERU NAGASE
     UNIVERSITY OF NOTRE DAME: DAN CHIPMAN
     KYUSHU UNIVERSITY:
          HARUYUKI NAKANO,
          FENG LONG GU, JACEK KORCHOWIEC, MARCIN MAKOWSKI, AND YURIKO AOKI,
          HIROTOSHI MORI AND EISAKU MIYOSHI
     PENNSYLVANIA STATE UNIVERSITY:
          TZVETELIN IORDANOV, CHET SWALINA, JONATHAN SKONE,
          SHARON HAMMES-SCHIFFER
     WASEDA UNIVERSITY:
          MASATO KOBAYASHI, TOMOKO AKAMA, TSUGUKI TOUMA,
          TAKESHI YOSHIKAWA, YASUHIRO IKABATA, HIROMI NAKAI
     NANJING UNIVERSITY: SHUHUA LI
     UNIVERSITY OF NEBRASKA:
          PEIFENG SU, DEJUN SI, NANDUN THELLAMUREGE, YALI WANG, HUI LI
     UNIVERSITY OF ZURICH:
          ROBERTO PEVERATI, KIM BALDRIDGE
     N. COPERNICUS UNIVERSITY AND JACKSON STATE UNIVERSITY:
          MARIA BARYSZ


 PARALLEL VERSION RUNNING ON     4 PROCESSORS IN     4 NODES.

 EXECUTION OF GAMESS BEGUN Mon Nov 18 14:41:04 2019

            ECHO OF THE FIRST FEW INPUT CARDS -
 INPUT CARD> $CONTRL runtyp=irc UNITS=ANGS $END                                             
 INPUT CARD> $basis gbasis=sto ngauss=3 $end                                                
 INPUT CARD>! $statpt nstep=100 hssend=.t.  ifolow=1 hess=calc                              
 INPUT CARD>! ihrep=3 $end                                                                  
 INPUT CARD> $IRC    PACE=GS2 SADDLE=.true. FORWRD=.FALSE. NPOINT=37 $END                   
 INPUT CARD>! $IRC    stride= $END                                                          
 INPUT CARD>                                                                                
 INPUT CARD> $DATA                                                                          
 INPUT CARD> c4h6 IRC, forward                                                              
 INPUT CARD> c1                                                                             
 INPUT CARD> C           6.0   0.2784387580  -1.3858492389  -0.2944237627                   
 INPUT CARD> C           6.0   0.1877142332  -0.2985409841   0.4297370771                   
 INPUT CARD> C           6.0  -1.0029076938   0.6281438574   0.4302365172                   
 INPUT CARD> C           6.0  -1.0963458364   1.7127452436  -0.2976291862                   
 INPUT CARD> H           1.0   1.1506432384  -2.0243299193  -0.2591914196                   
 INPUT CARD> H           1.0  -0.5101295716  -1.7010552632  -0.9643934825                   
 INPUT CARD> H           1.0   1.0028130265  -0.0206837250   1.0921589349                   
 INPUT CARD> H           1.0  -1.8155200558   0.3527664894   1.0967358167                   
 INPUT CARD> H           1.0  -1.9684151747   2.3513610680  -0.2615152485                   
 INPUT CARD> H           1.0  -0.3102909237   2.0254424721  -0.9717152464                   
 INPUT CARD> $end                                                                           
 INPUT CARD> $HESS                                                                          
 INPUT CARD>ENERGY IS     -153.0114152329 E(NUC) IS      104.2771020044                     
 INPUT CARD> 1  1 7.72564088E-01-1.83460289E-01 2.14381584E-01-1.50305153E-01 5.75238150E-02
 INPUT CARD> 1  2-5.99634692E-04 2.96672820E-03 3.57383845E-02 1.83746968E-02-3.56031299E-03
 INPUT CARD> 1  3-6.13608643E-04 1.88723904E-03-3.38510633E-01 1.90965646E-01-2.56398645E-02
 INPUT CARD> 1  4-2.92720745E-01-7.20714754E-02-1.86125676E-01 1.06238631E-02-2.87699771E-02
 INPUT CARD> 1  5-2.02116449E-02-9.56802825E-04 8.38533133E-04-9.25427259E-04-5.14309942E-04
 INPUT CARD> 1  6-9.12545315E-04-2.59917768E-03 4.13323702E-04 7.61499591E-04 1.45787190E-03
 INPUT CARD> 2  1-1.83460289E-01 9.34950867E-01 4.51304800E-01 4.91122368E-02-6.03317448E-01
 INPUT CARD> 2  2-3.50487071E-01 8.39859046E-03-2.12940487E-02-1.47896003E-02-6.23883724E-04
 INPUT CARD> 2  3 2.82985113E-03-8.77807082E-04 1.94454224E-01-2.06255017E-01-1.57269446E-03
 INPUT CARD> 2  4-7.50820332E-02-1.05821036E-01-7.99923030E-02 8.76365847E-03-2.03213862E-03
 INPUT CARD> 2  5-4.04868969E-03-1.82154980E-03 1.54251185E-04 8.22229913E-05 4.67512516E-04
 INPUT CARD> 2  6 1.02947514E-03 1.05693694E-03-2.08427961E-04-2.44800339E-04-6.75799799E-04
 INPUT CARD> 3  1 2.14381584E-01 4.51304800E-01 6.02697061E-01-7.17851408E-03-3.45946510E-01
 INPUT CARD> 3  2-3.25521855E-01 1.74300551E-03-1.61836781E-03 9.30470937E-03-1.87137918E-03
 INPUT CARD> 3  3 8.69809746E-04 6.24580725E-05-2.29946948E-02-3.46873265E-03-6.65976036E-02
 INPUT CARD> 3  4-1.88413670E-01-7.79942823E-02-2.15609357E-01 6.38168151E-03-2.50572696E-02
 INPUT CARD> 3  5-4.05892247E-03-1.92037693E-03 1.87429945E-03 3.10256574E-04-2.88884652E-04
 INPUT CARD> 3  6-1.06085230E-04-7.99494509E-04 1.61251557E-04 1.42301507E-04 2.12786955E-04
 INPUT CARD> 4  1-1.50305153E-01 4.91122368E-02-7.17851408E-03 6.91317848E-01-1.23234719E-01
 INPUT CARD> 4  2 1.83241917E-01-2.59348830E-01 1.05227962E-01 1.25241533E-03 2.89123812E-03
 INPUT CARD> 4  3 8.44757346E-03-1.75056031E-03 6.90286260E-03 2.98055800E-02 2.09009352E-02
 INPUT CARD> 4  4 1.25343144E-02-2.71263730E-02-1.73803387E-02-2.91280421E-01-6.34595394E-02
 INPUT CARD> 4  5-1.78768791E-01-1.54117671E-02 2.16941391E-02-3.15188620E-03 3.28205615E-03
 INPUT CARD> 4  6 3.13738195E-03 7.14583125E-03-5.82108680E-04-3.60423402E-03-4.31101851E-03
 INPUT CARD> 5  1 5.75238150E-02-6.03317448E-01-3.45946510E-01-1.23234719E-01 9.09379021E-01
 INPUT CARD> 5  2 4.30590448E-01 1.05217490E-01-1.83898877E-01-1.65225059E-03 3.56757603E-02
 INPUT CARD> 5  3-2.12328914E-02 1.59884131E-03-6.35054159E-03-1.13567594E-02-1.67799479E-02
    1000000 WORDS OF MEMORY AVAILABLE

     BASIS OPTIONS
     -------------
     GBASIS=STO          IGAUSS=       3      POLAR=NONE    
     NDFUNC=       0     NFFUNC=       0     DIFFSP=       F
     NPFUNC=       0      DIFFS=       F     BASNAM=        


     RUN TITLE
     ---------
  c4h6 IRC, forward                                                              

 THE POINT GROUP OF THE MOLECULE IS C1      
 THE ORDER OF THE PRINCIPAL AXIS IS     0

 ATOM      ATOMIC                      COORDINATES (BOHR)
           CHARGE         X                   Y                   Z
 C           6.0     0.5261729570       -2.6188753218       -0.5563802358
 C           6.0     0.3547284647       -0.5641606561        0.8120853225
 C           6.0    -1.8952207323        1.1870197714        0.8130291274
 C           6.0    -2.0717932186        3.2366191972       -0.5624376079
 H           1.0     2.1744004302       -3.8254288562       -0.4898007614
 H           1.0    -0.9640051086       -3.2145283374       -1.8224394263
 H           1.0     1.8950418370       -0.0390865727        2.0638811220
 H           1.0    -3.4308354307        0.6666320026        2.0725301745
 H           1.0    -3.7197653103        4.4434281167       -0.4941921613
 H           1.0    -0.5863648223        3.8275312762       -1.8362755538

          INTERNUCLEAR DISTANCES (ANGS.)
          ------------------------------

                1 C          2 C          3 C          4 C          5 H     

   1 C       0.0000000    1.3095339 *  2.4946241 *  3.3898865    1.0814988 *
   2 C       1.3095339 *  0.0000000    1.5087497 *  2.4946231 *  2.0928933 *
   3 C       2.4946241 *  1.5087497 *  0.0000000    1.3095340 *  3.4854999  
   4 C       3.3898865    2.4946231 *  1.3095340 *  0.0000000    4.3607532  
   5 H       1.0814988 *  2.0928933 *  3.4854999    4.3607532    0.0000000  
   6 H       1.0816905 *  2.0970532 *  2.7591650 *  3.5273585    1.8330256 *
   7 H       2.0762964 *  1.0864591 *  2.2095326 *  3.0565920    2.4212806 *
   8 H       3.0565950    2.2095331 *  1.0864589 *  2.0762966 *  4.0357466  
   9 H       4.3607541    3.4854992    2.0928934 *  1.0814986 *  5.3735651  
  10 H       3.5273556    2.7591623 *  2.0970527 *  1.0816903 *  4.3637914  

                6 H          7 H          8 H          9 H         10 H     

   1 C       1.0816905 *  2.0762964 *  3.0565950    4.3607541    3.5273556  
   2 C       2.0970532 *  1.0864591 *  2.2095331 *  3.4854992    2.7591623 *
   3 C       2.7591650 *  2.2095326 *  1.0864589 *  2.0928934 *  2.0970527 *
   4 C       3.5273585    3.0565920    2.0762966 *  1.0814986 *  1.0816903 *
   5 H       1.8330256 *  2.4212806 *  4.0357466    5.3735651    4.3637914  
   6 H       0.0000000    3.0564770    3.1891193    4.3637957    3.7318594  
   7 H       3.0564770    0.0000000    2.8429716 *  4.0357437    3.1891145  
   8 H       3.1891193    2.8429716 *  0.0000000    2.4212813 *  3.0564766  
   9 H       4.3637957    4.0357437    2.4212813 *  0.0000000    1.8330256 *
  10 H       3.7318594    3.1891145    3.0564766    1.8330256 *  0.0000000  

  * ... LESS THAN  3.000


     ATOMIC BASIS SET
     ----------------
 THE CONTRACTED PRIMITIVE FUNCTIONS HAVE BEEN UNNORMALIZED
 THE CONTRACTED BASIS FUNCTIONS ARE NOW NORMALIZED TO UNITY

  SHELL TYPE  PRIMITIVE        EXPONENT          CONTRACTION COEFFICIENT(S)

 C         

      1   S       1            71.6168373    0.154328967295
      1   S       2            13.0450963    0.535328142282
      1   S       3             3.5305122    0.444634542185

      2   L       4             2.9412494   -0.099967229187    0.155916274999
      2   L       5             0.6834831    0.399512826089    0.607683718598
      2   L       6             0.2222899    0.700115468880    0.391957393099

 C         

      3   S       7            71.6168373    0.154328967295
      3   S       8            13.0450963    0.535328142282
      3   S       9             3.5305122    0.444634542185

      4   L      10             2.9412494   -0.099967229187    0.155916274999
      4   L      11             0.6834831    0.399512826089    0.607683718598
      4   L      12             0.2222899    0.700115468880    0.391957393099

 C         

      5   S      13            71.6168373    0.154328967295
      5   S      14            13.0450963    0.535328142282
      5   S      15             3.5305122    0.444634542185

      6   L      16             2.9412494   -0.099967229187    0.155916274999
      6   L      17             0.6834831    0.399512826089    0.607683718598
      6   L      18             0.2222899    0.700115468880    0.391957393099

 C         

      7   S      19            71.6168373    0.154328967295
      7   S      20            13.0450963    0.535328142282
      7   S      21             3.5305122    0.444634542185

      8   L      22             2.9412494   -0.099967229187    0.155916274999
      8   L      23             0.6834831    0.399512826089    0.607683718598
      8   L      24             0.2222899    0.700115468880    0.391957393099

 H         

      9   S      25             3.4252509    0.154328967295
      9   S      26             0.6239137    0.535328142282
      9   S      27             0.1688554    0.444634542185

 H         

     10   S      28             3.4252509    0.154328967295
     10   S      29             0.6239137    0.535328142282
     10   S      30             0.1688554    0.444634542185

 H         

     11   S      31             3.4252509    0.154328967295
     11   S      32             0.6239137    0.535328142282
     11   S      33             0.1688554    0.444634542185

 H         

     12   S      34             3.4252509    0.154328967295
     12   S      35             0.6239137    0.535328142282
     12   S      36             0.1688554    0.444634542185

 H         

     13   S      37             3.4252509    0.154328967295
     13   S      38             0.6239137    0.535328142282
     13   S      39             0.1688554    0.444634542185

 H         

     14   S      40             3.4252509    0.154328967295
     14   S      41             0.6239137    0.535328142282
     14   S      42             0.1688554    0.444634542185

 TOTAL NUMBER OF BASIS SET SHELLS             =   14
 NUMBER OF CARTESIAN GAUSSIAN BASIS FUNCTIONS =   26
 NUMBER OF ELECTRONS                          =   30
 CHARGE OF MOLECULE                           =    0
 SPIN MULTIPLICITY                            =    1
 NUMBER OF OCCUPIED ORBITALS (ALPHA)          =   15
 NUMBER OF OCCUPIED ORBITALS (BETA )          =   15
 TOTAL NUMBER OF ATOMS                        =   10
 THE NUCLEAR REPULSION ENERGY IS      104.2771020041

     $NEO OPTIONS
     ------------
     NUNIQN=       0     BASNUC=DZSNB        NEOSCF=NONE    
     NEOCI =NONE         NUMULT=       2     NUCST =       1
     NAUXNB=       0     VNUCEX=       F     NUCOPT=       F
     NTAUXB=       0     NEOHSS=       F     HSSINI=READH   
     HSSUPD=POWELLUP     DIRNUC=       F     SYMNUC=       F
     QMTOLN= 0.0E+00     USRDEX=       F
     POSNEO=       F     POSPRP=       F
     NEONCI=       F     LOCORB=       0

     $CONTRL OPTIONS
     ---------------
 SCFTYP=RHF          RUNTYP=IRC          EXETYP=RUN     
 MPLEVL=       0     CITYP =NONE         CCTYP =NONE         VBTYP =NONE    
 DFTTYP=NONE         TDDFT =NONE    
 MULT  =       1     ICHARG=       0     NZVAR =       0     COORD =UNIQUE  
 PP    =NONE         RELWFN=NONE         LOCAL =NONE         NUMGRD=       F
 ISPHER=      -1     NOSYM =       0     MAXIT =      30     UNITS =ANGS    
 PLTORB=       F     MOLPLT=       F     AIMPAC=       F     FRIEND=        
 NPRINT=       7     IREST =       0     GEOM  =INPUT   
 NORMF =       0     NORMP =       0     ITOL  =      20     ICUT  =       9
 INTTYP=BEST         GRDTYP=BEST         QMTTOL= 1.0E-06

     $SYSTEM OPTIONS
     ---------------
  REPLICATED MEMORY=     1000000 WORDS (ON EVERY NODE).
 DISTRIBUTED MEMDDI=           0 MILLION WORDS IN AGGREGATE,
 MEMDDI DISTRIBUTED OVER   4 PROCESSORS IS           0 WORDS/PROCESSOR.
 TOTAL MEMORY REQUESTED ON EACH PROCESSOR=     1000000 WORDS.
 TIMLIM=      525600.00 MINUTES, OR     365.0 DAYS.
 PARALL= T  BALTYP=  DLB     KDIAG=    0  COREFL= F
 MXSEQ2=     300 MXSEQ3=     150

          ----------------
          PROPERTIES INPUT
          ----------------

     MOMENTS            FIELD           POTENTIAL          DENSITY
 IEMOM =       1   IEFLD =       0   IEPOT =       0   IEDEN =       0
 WHERE =COMASS     WHERE =NUCLEI     WHERE =NUCLEI     WHERE =NUCLEI  
 OUTPUT=BOTH       OUTPUT=BOTH       OUTPUT=BOTH       OUTPUT=BOTH    
 IEMINT=       0   IEFINT=       0                     IEDINT=       0
                                                       MORB  =       0
          EXTRAPOLATION IN EFFECT
          SOSCF IN EFFECT
 ORBITAL PRINTING OPTION: NPREO=     1    26     2     1

     -------------------------------
     INTEGRAL TRANSFORMATION OPTIONS
     -------------------------------
     NWORD  =            0
     CUTOFF = 1.0E-09     MPTRAN =       0
     DIRTRF =       F     AOINTS =DUP     

          ----------------------
          INTEGRAL INPUT OPTIONS
          ----------------------
 NOPK  =       1 NORDER=       0 SCHWRZ=       T

     ------------------------------------------
     THE POINT GROUP IS C1 , NAXIS= 0, ORDER= 1
     ------------------------------------------

     DIMENSIONS OF THE SYMMETRY SUBSPACES ARE
 A   =   26

 ..... DONE SETTING UP THE RUN .....
 CPU     0: STEP CPU TIME=     0.03 TOTAL CPU TIME=        0.0 (    0.0 MIN)
 TOTAL WALL CLOCK TIME=        0.0 SECONDS, CPU UTILIZATION IS 100.00%

          -----------------------------
          INTRINSIC REACTION COORDINATE
          -----------------------------
          PACE   =GS2     
          STRIDE = 0.30000 BOHR*SQRT(AMU)
          NPOINT =      37
          NEXTPT =       0
          STOTAL =  0.0000 BOHR*SQRT(AMU)
          SAB    =  0.0000 BOHR*SQRT(AMU)
          NPRT   =       0
          NPUN   =       0

          SADDLE =       T
          TSENGY =       F
          FORWRD =       F
          EVIB   = 0.00050 HARTREE
          FREQ   =     0.0 CM**-1

          STABLZ =       F
          ELBOW  =  175.00 DEGREES
          DELTA  = 0.02500 BOHR

          READQB =       F
          EB     =        0.0000000000 HARTREES
          GBNORM =        0.0000000000 HARTREES/SQRT(AMU)-BOHR

          GCUT   = 0.0001000 HARTREES/SQRT(AMU)-BOHR
          RCUT   = 0.0010000 BOHR
          ACUT   =    5.00 DEGREES
          MXOPT  =      20
          IHUPD  =       2

 ATOMIC MASSES USED (IN AMU) ARE
     C             12.0000
     C             12.0000
     C             12.0000
     C             12.0000
     H              1.0078
     H              1.0078
     H              1.0078
     H              1.0078
     H              1.0078
     H              1.0078

 JUMP AWAY FROM SADDLE POINT WILL BE FOUND FROM THE INPUT HESSIAN MATRIX


 JUMPING OFF SADDLE POINT ALONG THE IMAGINARY NORMAL MODE...

 $HESS GROUP READ FROM CARDS
 ENERGY IS     -153.0114152329 E(NUC) IS      104.2771020044                     
 INITIAL DISPLACEMENT=  0.15 ALONG MODE WITH FREQUENCY=     161.327 I CM**-1
 THE COMPONENTS OF THE DISPLACEMENT ARE (BOHR) -
   -0.001214  -0.010299   0.011678
    0.004667   0.006005  -0.011955
   -0.004711  -0.006050  -0.011915
    0.001258   0.010342   0.011635
    0.006143  -0.000541   0.005759
   -0.013924  -0.034076   0.037801
    0.018548   0.032381  -0.040251
   -0.018699  -0.032531  -0.040061
   -0.006122   0.000562   0.005780
    0.014065   0.034217   0.037622

 *********************************************
 ***** STARTING CONSTRAINED OPTIMIZATION *****
 *** TO FIND THE NEXT REACTION PATH POINT ****
 *********************************************
 CONSTRAINED OPTIMIZATION POINT   1 FOR PATH POINT   1
 COORDINATES OF SYMMETRY UNIQUE ATOMS (ANGS)
   ATOM   CHARGE       X              Y              Z
 ------------------------------------------------------------
 C           6.0   0.2771535597  -1.3967489246  -0.2820645571
 C           6.0   0.1926531529  -0.2921856784   0.4170842104
 C           6.0  -1.0078940382   0.6217413418   0.4176258227
 C           6.0  -1.0950143192   1.7236910401  -0.2853154707
 H           1.0   1.1571451819  -2.0249024417  -0.2530962149
 H           1.0  -0.5248658965  -1.7371193993  -0.9243869202
 H           1.0   1.0224436885   0.0135868066   1.0495588744
 H           1.0  -1.8353103888   0.3183369955   1.0543367799
 H           1.0  -1.9748942394   2.3519563598  -0.2553980999
 H           1.0  -0.2954046432   2.0616559136  -0.9318980905
 ...... END OF ONE-ELECTRON INTEGRALS ......
 CPU     0: STEP CPU TIME=     0.00 TOTAL CPU TIME=        0.0 (    0.0 MIN)
 TOTAL WALL CLOCK TIME=        0.0 SECONDS, CPU UTILIZATION IS 100.00%

          -------------
          GUESS OPTIONS
          -------------
          GUESS =HUCKEL            NORB  =       0          NORDER=       0
          MIX   =       F          PRTMO =       F          PUNMO =       F
          TOLZ  = 1.0E-08          TOLE  = 1.0E-05
          SYMDEN=       F          PURIFY=       F

 INITIAL GUESS ORBITALS GENERATED BY HUCKEL   ROUTINE.
 HUCKEL GUESS REQUIRES     14272 WORDS.

 SYMMETRIES FOR INITIAL GUESS ORBITALS FOLLOW.   BOTH SET(S).
    15 ORBITALS ARE OCCUPIED (    4 CORE ORBITALS).
     5=A        6=A        7=A        8=A        9=A       10=A       11=A   
    12=A       13=A       14=A       15=A       16=A       17=A       18=A   
    19=A       20=A       21=A       22=A       23=A       24=A       25=A   
 ...... END OF INITIAL ORBITAL SELECTION ......
 CPU     0: STEP CPU TIME=     0.00 TOTAL CPU TIME=        0.0 (    0.0 MIN)
 TOTAL WALL CLOCK TIME=        0.0 SECONDS, CPU UTILIZATION IS 100.00%

                    ----------------------
                    AO INTEGRAL TECHNOLOGY
                    ----------------------
     S,P,L SHELL ROTATED AXIS INTEGRALS, REPROGRAMMED BY
        KAZUYA ISHIMURA (IMS) AND JOSE SIERRA (SYNSTAR).
     S,P,D,L SHELL ROTATED AXIS INTEGRALS PROGRAMMED BY
        KAZUYA ISHIMURA (INSTITUTE FOR MOLECULAR SCIENCE).
     S,P,D,F,G SHELL TO TOTAL QUARTET ANGULAR MOMENTUM SUM 5,
        ERIC PROGRAM BY GRAHAM FLETCHER (ELORET AND NASA ADVANCED
        SUPERCOMPUTING DIVISION, AMES RESEARCH CENTER).
     S,P,D,F,G,L SHELL GENERAL RYS QUADRATURE PROGRAMMED BY
        MICHEL DUPUIS (PACIFIC NORTHWEST NATIONAL LABORATORY).
 TOTAL NUMBER OF NONZERO TWO-ELECTRON INTEGRALS =               59552
          7 INTEGRAL RECORDS WERE STORED ON DISK FILE  8.
  ...... END OF TWO-ELECTRON INTEGRALS .....
 CPU     0: STEP CPU TIME=     0.06 TOTAL CPU TIME=        0.1 (    0.0 MIN)
 TOTAL WALL CLOCK TIME=        0.1 SECONDS, CPU UTILIZATION IS 100.00%

          --------------------------
                 RHF SCF CALCULATION
          --------------------------
     DENSITY MATRIX CONV=  1.00E-05

 ITER EX DEM     TOTAL ENERGY        E CHANGE  DENSITY CHANGE     ORB. GRAD
   1  0  0     -152.8593471760  -152.8593471760   0.203647339   0.000000000
          ---------------START SECOND ORDER SCF---------------
   2  1  0     -153.0067848527    -0.1474376767   0.054913978   0.016307312
   3  2  0     -153.0108373945    -0.0040525418   0.019787220   0.008537659
   4  3  0     -153.0114352233    -0.0005978288   0.002283262   0.002072973
   5  4  0     -153.0114516361    -0.0000164129   0.000984516   0.000442979
   6  5  0     -153.0114538090    -0.0000021728   0.000364382   0.000159457
   7  6  0     -153.0114540179    -0.0000002089   0.000053280   0.000046657
   8  7  0     -153.0114540255    -0.0000000076   0.000008358   0.000003885
   9  8  0     -153.0114540258    -0.0000000003   0.000003741   0.000001375

          -----------------
          DENSITY CONVERGED
          -----------------
     TIME TO FORM FOCK OPERATORS=       0.0 SECONDS (       0.0 SEC/ITER)
     TIME TO SOLVE SCF EQUATIONS=       0.0 SECONDS (       0.0 SEC/ITER)

 FINAL RHF ENERGY IS     -153.0114540258 AFTER   9 ITERATIONS
 ...... END OF RHF CALCULATION ......
 CPU     0: STEP CPU TIME=     0.00 TOTAL CPU TIME=        0.1 (    0.0 MIN)
 TOTAL WALL CLOCK TIME=        0.1 SECONDS, CPU UTILIZATION IS 100.00%
 ..... END OF 1-ELECTRON GRADIENT ......
 CPU     0: STEP CPU TIME=     0.01 TOTAL CPU TIME=        0.1 (    0.0 MIN)
 TOTAL WALL CLOCK TIME=        0.1 SECONDS, CPU UTILIZATION IS 100.00%
 ...... END OF 2-ELECTRON GRADIENT ......
 CPU     0: STEP CPU TIME=     0.01 TOTAL CPU TIME=        0.1 (    0.0 MIN)
 TOTAL WALL CLOCK TIME=        0.1 SECONDS, CPU UTILIZATION IS 100.00%

 UNITS ARE HARTREE/BOHR    E'X               E'Y               E'Z 
    1 C                0.000279942       0.000039460      -0.000272121
    2 C               -0.000397817       0.000032212       0.000172366
    3 C                0.000398169      -0.000031818       0.000171100
    4 C               -0.000280837      -0.000040155      -0.000271036
    5 H                0.000070365      -0.000005992       0.000034784
    6 H               -0.000434944      -0.000173186      -0.000474488
    7 H                0.000524406       0.000195788       0.000539195
    8 H               -0.000522219      -0.000193658       0.000541840
    9 H               -0.000070173       0.000006052       0.000035034
   10 H                0.000433108       0.000171297      -0.000476674

 CURRENT OPTIMIZATION POINT :
 ENERGY                                 =  -153.0114540 HARTREE
 MASS WEIGHTED TANGENT GRADIENT NORM    =     0.0014449 HARTREE/BOHR-SQRT(AMU)
 NEXT GEOMETRY STEP HAS PREDICTED ANGLE =         2.572 DEGREES
 AND CARTESIAN RMS DISPLACEMENT         =     0.0052348 BOHR

 CONSTRAINED OPTIMIZATION POINT   2 FOR PATH POINT   1
 COORDINATES OF SYMMETRY UNIQUE ATOMS (ANGS)
   ATOM   CHARGE       X              Y              Z
 ------------------------------------------------------------
 C           6.0   0.2773219306  -1.3967955373  -0.2818325744
 C           6.0   0.1924333761  -0.2923227236   0.4168121179
 C           6.0  -1.0076744775   0.6218774545   0.4173520841
 C           6.0  -1.0951824000   1.7237385145  -0.2850831351
 H           1.0   1.1569643667  -2.0252475005  -0.2525457873
 H           1.0  -0.5239235826  -1.7366266571  -0.9242002888
 H           1.0   1.0213360283   0.0127473356   1.0493099054
 H           1.0  -1.8342038968   0.3191736186   1.0540784997
 H           1.0  -1.9747132013   2.3523019417  -0.2548500799
 H           1.0  -0.2963468943   2.0611663397  -0.9317053604
 ...... END OF ONE-ELECTRON INTEGRALS ......
 CPU     0: STEP CPU TIME=     0.00 TOTAL CPU TIME=        0.1 (    0.0 MIN)
 TOTAL WALL CLOCK TIME=        0.1 SECONDS, CPU UTILIZATION IS 100.00%
 TOTAL NUMBER OF NONZERO TWO-ELECTRON INTEGRALS =               59552
          7 INTEGRAL RECORDS WERE STORED ON DISK FILE  8.
  ...... END OF TWO-ELECTRON INTEGRALS .....
 CPU     0: STEP CPU TIME=     0.01 TOTAL CPU TIME=        0.1 (    0.0 MIN)
 TOTAL WALL CLOCK TIME=        0.1 SECONDS, CPU UTILIZATION IS 100.00%

          --------------------------
                 RHF SCF CALCULATION
          --------------------------
     DENSITY MATRIX CONV=  1.00E-05

 ITER EX DEM     TOTAL ENERGY        E CHANGE  DENSITY CHANGE     ORB. GRAD
          ---------------START SECOND ORDER SCF---------------
   1  0  0     -153.0114561955  -153.0114561955   0.000197502   0.000154042
   2  1  0     -153.0114565627    -0.0000003672   0.000125052   0.000066341
   3  2  0     -153.0114566229    -0.0000000602   0.000016883   0.000009435
   4  3  0     -153.0114566242    -0.0000000013   0.000010718   0.000003196
   5  4  0     -153.0114566244    -0.0000000002   0.000001406   0.000000881
   6  5  0     -153.0114566244     0.0000000000   0.000000231   0.000000162

          -----------------
          DENSITY CONVERGED
          -----------------
     TIME TO FORM FOCK OPERATORS=       0.0 SECONDS (       0.0 SEC/ITER)
     TIME TO SOLVE SCF EQUATIONS=       0.0 SECONDS (       0.0 SEC/ITER)

 FINAL RHF ENERGY IS     -153.0114566244 AFTER   6 ITERATIONS
 ...... END OF RHF CALCULATION ......
 CPU     0: STEP CPU TIME=     0.00 TOTAL CPU TIME=        0.1 (    0.0 MIN)
 TOTAL WALL CLOCK TIME=        0.1 SECONDS, CPU UTILIZATION IS 100.00%
 ..... END OF 1-ELECTRON GRADIENT ......
 CPU     0: STEP CPU TIME=     0.01 TOTAL CPU TIME=        0.1 (    0.0 MIN)
 TOTAL WALL CLOCK TIME=        0.1 SECONDS, CPU UTILIZATION IS 100.00%
 ...... END OF 2-ELECTRON GRADIENT ......
 CPU     0: STEP CPU TIME=     0.01 TOTAL CPU TIME=        0.1 (    0.0 MIN)
 TOTAL WALL CLOCK TIME=        0.1 SECONDS, CPU UTILIZATION IS 100.00%

 UNITS ARE HARTREE/BOHR    E'X               E'Y               E'Z 
    1 C                0.000018542       0.000189444      -0.000255539
    2 C               -0.000069844      -0.000089327       0.000261972
    3 C                0.000070859       0.000090334       0.000261343
    4 C               -0.000019502      -0.000190430      -0.000254732
    5 H               -0.000016580       0.000002192      -0.000011753
    6 H                0.000044432       0.000075203      -0.000070024
    7 H               -0.000057916      -0.000075708       0.000075293
    8 H                0.000058122       0.000075963       0.000074854
    9 H                0.000016522      -0.000002221      -0.000011797
   10 H               -0.000044635      -0.000075450      -0.000069618

 ANGLE TO PREVIOUS OPTIMIZATION POINT IS   2.572
 LINEAR INTERPOLATION GIVES ANGLE          2.449

 CURRENT OPTIMIZATION POINT :
 ENERGY                                 =  -153.0114566 HARTREE
 MASS WEIGHTED TANGENT GRADIENT NORM    =     0.0000643 HARTREE/BOHR-SQRT(AMU)
 NEXT GEOMETRY STEP HAS PREDICTED ANGLE =         1.197 DEGREES
 AND CARTESIAN RMS DISPLACEMENT         =     0.0024549 BOHR

 CONSTRAINED OPTIMIZATION POINT   3 FOR PATH POINT   1
 COORDINATES OF SYMMETRY UNIQUE ATOMS (ANGS)
   ATOM   CHARGE       X              Y              Z
 ------------------------------------------------------------
 C           6.0   0.2772258712  -1.3966351328  -0.2819032542
 C           6.0   0.1924611082  -0.2922866989   0.4169254056
 C           6.0  -1.0077018195   0.6218418433   0.4174656079
 C           6.0  -1.0950865805   1.7235778492  -0.2851535623
 H           1.0   1.1569616507  -2.0249903347  -0.2530418080
 H           1.0  -0.5243315287  -1.7365740643  -0.9238659077
 H           1.0   1.0216683176   0.0130237394   1.0489603625
 H           1.0  -1.8345374111   0.3188960414   1.0537312679
 H           1.0  -1.9747122362   2.3520430028  -0.2553451546
 H           1.0  -0.2959377592   2.0611148751  -0.9313723418
 ...... END OF ONE-ELECTRON INTEGRALS ......
 CPU     0: STEP CPU TIME=     0.00 TOTAL CPU TIME=        0.1 (    0.0 MIN)
 TOTAL WALL CLOCK TIME=        0.1 SECONDS, CPU UTILIZATION IS 100.00%
 TOTAL NUMBER OF NONZERO TWO-ELECTRON INTEGRALS =               59552
          7 INTEGRAL RECORDS WERE STORED ON DISK FILE  8.
  ...... END OF TWO-ELECTRON INTEGRALS .....
 CPU     0: STEP CPU TIME=     0.01 TOTAL CPU TIME=        0.2 (    0.0 MIN)
 TOTAL WALL CLOCK TIME=        0.2 SECONDS, CPU UTILIZATION IS 100.00%

          --------------------------
                 RHF SCF CALCULATION
          --------------------------
     DENSITY MATRIX CONV=  1.00E-05

 ITER EX DEM     TOTAL ENERGY        E CHANGE  DENSITY CHANGE     ORB. GRAD
          ---------------START SECOND ORDER SCF---------------
   1  0  0     -153.0114565023  -153.0114565023   0.000157321   0.000101273
   2  1  0     -153.0114566497    -0.0000001473   0.000104025   0.000045095
   3  2  0     -153.0114566794    -0.0000000298   0.000006074   0.000004249
   4  3  0     -153.0114566797    -0.0000000003   0.000003958   0.000001385
   5  4  0     -153.0114566797     0.0000000000   0.000000768   0.000000398

          -----------------
          DENSITY CONVERGED
          -----------------
     TIME TO FORM FOCK OPERATORS=       0.0 SECONDS (       0.0 SEC/ITER)
     TIME TO SOLVE SCF EQUATIONS=       0.0 SECONDS (       0.0 SEC/ITER)

 FINAL RHF ENERGY IS     -153.0114566797 AFTER   5 ITERATIONS
 ...... END OF RHF CALCULATION ......
 CPU     0: STEP CPU TIME=     0.00 TOTAL CPU TIME=        0.2 (    0.0 MIN)
 TOTAL WALL CLOCK TIME=        0.2 SECONDS, CPU UTILIZATION IS 100.00%
 ..... END OF 1-ELECTRON GRADIENT ......
 CPU     0: STEP CPU TIME=     0.01 TOTAL CPU TIME=        0.2 (    0.0 MIN)
 TOTAL WALL CLOCK TIME=        0.2 SECONDS, CPU UTILIZATION IS 100.00%
 ...... END OF 2-ELECTRON GRADIENT ......
 CPU     0: STEP CPU TIME=     0.01 TOTAL CPU TIME=        0.2 (    0.0 MIN)
 TOTAL WALL CLOCK TIME=        0.2 SECONDS, CPU UTILIZATION IS 100.00%

 UNITS ARE HARTREE/BOHR    E'X               E'Y               E'Z 
    1 C                0.000025497       0.000244807      -0.000262730
    2 C               -0.000102254      -0.000146140       0.000266725
    3 C                0.000103211       0.000147133       0.000265803
    4 C               -0.000026447      -0.000245791      -0.000261708
    5 H               -0.000008960       0.000000721      -0.000010726
    6 H                0.000022116       0.000064311      -0.000075830
    7 H               -0.000028247      -0.000060109       0.000082526
    8 H                0.000028553       0.000060425       0.000082206
    9 H                0.000008927      -0.000000753      -0.000010753
   10 H               -0.000022398      -0.000064603      -0.000075513

 ANGLE TO PREVIOUS OPTIMIZATION POINT IS   1.197
 LINEAR INTERPOLATION GIVES ANGLE          1.196

 CURRENT OPTIMIZATION POINT :
 ENERGY                                 =  -153.0114567 HARTREE
 MASS WEIGHTED TANGENT GRADIENT NORM    =     0.0000144 HARTREE/BOHR-SQRT(AMU)
 NEXT GEOMETRY STEP HAS PREDICTED ANGLE =         0.036 DEGREES
 AND CARTESIAN RMS DISPLACEMENT         =     0.0000593 BOHR

 *******************************************
 ***** END OF CONSTRAINED OPTIMIZATION *****
 *******************************************

 ANGLE BETWEEN GRADIENTS AT CURRENT AND PREVIOUS IRC POINT =   1.935
 ENERGY WAS LOWERED BY      0.0000026540 HARTREE DURING OPTIMIZATION

 ***** NEXT POINT ON IRC FOUND *****
 STEP DISTANCE IS   0.29996 SQRT(AMU)-BOHR)

1         POINT   1 ON THE REACTION PATH
          ******************************
          AT PATH DISTANCE STOTAL =   0.29996     SQRT(AMU)-BOHR
          TOTAL ENERGY            =  -153.0114567 HARTREE
            3 CONSTRAINED OPTIMIZATION STEPS WERE PERFORMED
  
 COORDINATES OF ALL ATOMS ARE (ANGS)
   ATOM   CHARGE       X              Y              Z
 ------------------------------------------------------------
 C           6.0   0.2772258712  -1.3966351328  -0.2819032542
 C           6.0   0.1924611082  -0.2922866989   0.4169254056
 C           6.0  -1.0077018195   0.6218418433   0.4174656079
 C           6.0  -1.0950865805   1.7235778492  -0.2851535623
 H           1.0   1.1569616507  -2.0249903347  -0.2530418080
 H           1.0  -0.5243315287  -1.7365740643  -0.9238659077
 H           1.0   1.0216683176   0.0130237394   1.0489603625
 H           1.0  -1.8345374111   0.3188960414   1.0537312679
 H           1.0  -1.9747122362   2.3520430028  -0.2553451546
 H           1.0  -0.2959377592   2.0611148751  -0.9313723418
  

          INTERNUCLEAR DISTANCES (ANGS.)
          ------------------------------

                1 C          2 C          3 C          4 C          5 H     

   1 C       0.0000000    1.3096305 *  2.4928709 *  3.4086627    1.0814797 *
   2 C       1.3096305 *  0.0000000    1.5086492 *  2.4928706 *  2.0931744 *
   3 C       2.4928709 *  1.5086492 *  0.0000000    1.3096305 *  3.4844036  
   4 C       3.4086627    2.4928706 *  1.3096305 *  0.0000000    4.3731586  
   5 H       1.0814797 *  2.0931744 *  3.4844036    4.3731586    0.0000000  
   6 H       1.0817434 *  2.0970167 *  2.7558924 *  3.5645990    1.8330127 *
   7 H       2.0766633 *  1.0864011 *  2.2108343 *  3.0309250    2.4221923 *
   8 H       3.0309258    2.2108345 *  1.0864011 *  2.0766635 *  4.0187717  
   9 H       4.3731589    3.4844035    2.0931745 *  1.0814797 *  5.3819892  
  10 H       3.5645984    2.7558917 *  2.0970166 *  1.0817434 *  4.3894538  

                6 H          7 H          8 H          9 H         10 H     

   1 C       1.0817434 *  2.0766633 *  3.0309258    4.3731589    3.5645984  
   2 C       2.0970167 *  1.0864011 *  2.2108345 *  3.4844035    2.7558917 *
   3 C       2.7558924 *  2.2108343 *  1.0864011 *  2.0931745 *  2.0970166 *
   4 C       3.5645990    3.0309250    2.0766635 *  1.0814797 *  1.0817434 *
   5 H       1.8330127 *  2.4221923 *  4.0187717    5.3819892    4.3894538  
   6 H       0.0000000    3.0566733    3.1388672    4.3894548    3.8045580  
   7 H       3.0566733    0.0000000    2.8725410 *  4.0187710    3.1388661  
   8 H       3.1388672    2.8725410 *  0.0000000    2.4221925 *  3.0566733  
   9 H       4.3894548    4.0187710    2.4221925 *  0.0000000    1.8330127 *
  10 H       3.8045580    3.1388661    3.0566733    1.8330127 *  0.0000000  

  * ... LESS THAN  3.000


          CURRENT CARTESIAN GRADIENT
          ATOM               DE/DX          DE/DY          DE/DZ
          -----------------------------------------------------------
          C                0.0000255023   0.0002447524  -0.0002627247
          C               -0.0001022391  -0.0001460862   0.0002667171
          C                0.0001031970   0.0001470791   0.0002657955
          C               -0.0000264520  -0.0002457371  -0.0002617024
          H               -0.0000089626   0.0000007223  -0.0000107250
          H                0.0000221156   0.0000643103  -0.0000758419
          H               -0.0000282482  -0.0000601116   0.0000825390
          H                0.0000285548   0.0000604272   0.0000822188
          H                0.0000089299  -0.0000007540  -0.0000107522
          H               -0.0000223979  -0.0000646024  -0.0000755244
  
 CONVERGED ORBITALS AT IRC POINT                        1

                      1          2          3          4          5
                  -11.0319   -11.0316   -11.0166   -11.0166    -1.0325
                     A          A          A          A          A   
    1  C  1  S    0.024434   0.022583  -0.701010   0.701419   0.108232
    2  C  1  S   -0.005011  -0.004858  -0.025982   0.025996  -0.277474
    3  C  1  X    0.000260   0.000174   0.000080  -0.000071   0.010780
    4  C  1  Y   -0.002666  -0.002803  -0.001150   0.001119  -0.075833
    5  C  1  Z   -0.001663  -0.001793  -0.000707   0.000729  -0.044167
    6  C  2  S    0.700836   0.701610   0.022200  -0.024109   0.147351
    7  C  2  S    0.029384   0.021464   0.006355  -0.006916  -0.383013
    8  C  2  X   -0.002204   0.002463   0.000354  -0.000049   0.036869
    9  C  2  Y    0.000914  -0.002828  -0.002849   0.002723   0.021336
   10  C  2  Z   -0.000652  -0.000483  -0.001818   0.001721   0.035944
   11  C  3  S   -0.700876   0.701570   0.022216   0.024094   0.147351
   12  C  3  S   -0.029385   0.021463   0.006360   0.006912  -0.383013
   13  C  3  X   -0.002201  -0.002464  -0.000361  -0.000056  -0.036734
   14  C  3  Y    0.000917   0.002826   0.002844   0.002714  -0.021202
   15  C  3  Z    0.000657  -0.000484  -0.001829  -0.001729   0.036161
   16  C  4  S   -0.024436   0.022581  -0.701474  -0.700956   0.108232
   17  C  4  S    0.005011  -0.004858  -0.026000  -0.025978  -0.277474
   18  C  4  X    0.000266  -0.000180  -0.000083  -0.000074  -0.010945
   19  C  4  Y   -0.002660   0.002797   0.001148   0.001116   0.075668
   20  C  4  Z    0.001672  -0.001803  -0.000711  -0.000732  -0.044409
   21  H  5  S   -0.000021  -0.000104   0.004840  -0.004853  -0.057714
   22  H  6  S    0.000121  -0.000300   0.004834  -0.004837  -0.062453
   23  H  7  S   -0.004789  -0.004940  -0.000214   0.000252  -0.084278
   24  H  8  S    0.004789  -0.004939  -0.000214  -0.000252  -0.084278
   25  H  9  S    0.000021  -0.000104   0.004843   0.004850  -0.057714
   26  H 10  S   -0.000121  -0.000300   0.004837   0.004833  -0.062453

                      6          7          8          9         10
                   -0.9512    -0.7722    -0.6959    -0.6055    -0.5782
                     A          A          A          A          A   
    1  C  1  S   -0.144392  -0.116490  -0.063199   0.000511  -0.007613
    2  C  1  S    0.381767   0.342106   0.201726  -0.003416   0.042908
    3  C  1  X    0.001536   0.026700  -0.073050   0.258408   0.235163
    4  C  1  Y    0.061796  -0.094267  -0.148589  -0.064847  -0.253873
    5  C  1  Z    0.045850  -0.059301  -0.120701   0.125015  -0.100070
    6  C  2  S   -0.102193   0.087128   0.095861   0.000827   0.033164
    7  C  2  S    0.268866  -0.264810  -0.295192  -0.004058  -0.093151
    8  C  2  X    0.052176   0.068553  -0.174123   0.250914   0.134853
    9  C  2  Y   -0.130357  -0.159452  -0.031117  -0.072114   0.209609
   10  C  2  Z   -0.052730  -0.096684  -0.072411   0.151437   0.116766
   11  C  3  S    0.102193   0.087128  -0.095861   0.000827  -0.033164
   12  C  3  S   -0.268865  -0.264810   0.295192  -0.004058   0.093151
   13  C  3  X    0.052374  -0.068915  -0.173850  -0.250347   0.134414
   14  C  3  Y   -0.130160   0.159090  -0.030845   0.072680   0.209172
   15  C  3  Z    0.053020  -0.097020   0.073177   0.152104  -0.118050
   16  C  4  S    0.144392  -0.116490   0.063199   0.000511   0.007613
   17  C  4  S   -0.381767   0.342106  -0.201726  -0.003416  -0.042908
   18  C  4  X    0.001364  -0.026922  -0.072597  -0.257939   0.235537
   19  C  4  Y    0.061624   0.094045  -0.148138   0.065315  -0.253500
   20  C  4  Z   -0.046085  -0.059552   0.121526   0.125737   0.100136
   21  H  5  S    0.103182   0.172290   0.098390   0.190785   0.289053
   22  H  6  S    0.095725   0.154168   0.196172  -0.186585  -0.010614
   23  H  7  S    0.069892  -0.126078  -0.241520   0.195907   0.136944
   24  H  8  S   -0.069892  -0.126078   0.241521   0.195907  -0.136943
   25  H  9  S   -0.103182   0.172290  -0.098390   0.190785  -0.289053
   26  H 10  S   -0.095725   0.154168  -0.196172  -0.186585   0.010614

                     11         12         13         14         15
                   -0.5372    -0.4988    -0.4269    -0.3336    -0.3158
                     A          A          A          A          A   
    1  C  1  S   -0.009982   0.009013  -0.007665  -0.015315   0.014247
    2  C  1  S    0.008385  -0.020268   0.017812   0.058212  -0.054374
    3  C  1  X    0.053178  -0.269829  -0.249963  -0.178703  -0.169588
    4  C  1  Y    0.312190  -0.055759   0.083029  -0.157732  -0.298371
    5  C  1  Z    0.173877  -0.219029  -0.030121   0.373905   0.314891
    6  C  2  S   -0.007380  -0.018069   0.020462  -0.001097  -0.000957
    7  C  2  S    0.002390   0.075484  -0.086278  -0.001634   0.011133
    8  C  2  X    0.065642   0.108010   0.337155  -0.224211  -0.136594
    9  C  2  Y   -0.264293   0.176094  -0.186233  -0.259326  -0.180706
   10  C  2  Z   -0.256361   0.103538   0.105496   0.279328   0.370705
   11  C  3  S   -0.007380   0.018069   0.020462  -0.001097   0.000957
   12  C  3  S    0.002390  -0.075484  -0.086278  -0.001634  -0.011133
   13  C  3  X   -0.066602   0.107621  -0.336759   0.225252  -0.137978
   14  C  3  Y    0.263336   0.175706   0.186627   0.260364  -0.182085
   15  C  3  Z   -0.257098  -0.104597   0.106061   0.277519  -0.369515
   16  C  4  S   -0.009982  -0.009013  -0.007665  -0.015315  -0.014247
   17  C  4  S    0.008385   0.020268   0.017812   0.058212   0.054374
   18  C  4  X   -0.052526  -0.269008   0.249849   0.180100  -0.170762
   19  C  4  Y   -0.311539  -0.054940  -0.083142   0.159123  -0.299542
   20  C  4  Z    0.175237   0.220243  -0.030746   0.372643  -0.313140
   21  H  5  S   -0.107368  -0.197787  -0.271313  -0.020925   0.025657
   22  H  6  S   -0.200678   0.314109   0.219575  -0.027715   0.018612
   23  H  7  S   -0.149214   0.223041   0.246657  -0.122700   0.103180
   24  H  8  S   -0.149214  -0.223041   0.246657  -0.122700  -0.103180
   25  H  9  S   -0.107368   0.197787  -0.271313  -0.020925  -0.025657
   26  H 10  S   -0.200678  -0.314109   0.219574  -0.027715  -0.018612

                     16         17         18         19         20
                    0.3101     0.3358     0.5929     0.6565     0.6852
                     A          A          A          A          A   
    1  C  1  S   -0.018085  -0.020061   0.012001  -0.020996  -0.045671
    2  C  1  S    0.098317   0.111230  -0.064181   0.117846   0.267235
    3  C  1  X    0.231848  -0.209431  -0.447876  -0.425103  -0.118829
    4  C  1  Y    0.341453  -0.239164   0.002199   0.164112   0.109780
    5  C  1  Z   -0.406573   0.464962  -0.170631  -0.181187   0.077251
    6  C  2  S   -0.003584  -0.002976  -0.068206   0.077545   0.168331
    7  C  2  S    0.014467   0.009333   0.396284  -0.498235  -1.051498
    8  C  2  X   -0.188367   0.268527  -0.535112  -0.370781   0.010188
    9  C  2  Y   -0.252888   0.330042   0.291490  -0.146019  -0.260957
   10  C  2  Z    0.454919  -0.398936  -0.182699  -0.149558  -0.299485
   11  C  3  S   -0.003584   0.002976   0.068206   0.077545  -0.168331
   12  C  3  S    0.014466  -0.009333  -0.396284  -0.498236   1.051498
   13  C  3  X    0.190065   0.270015  -0.534427   0.370218   0.011310
   14  C  3  Y    0.254581   0.331525   0.292173   0.145458  -0.259839
   15  C  3  Z    0.453266   0.396696   0.183611  -0.151487   0.300416
   16  C  4  S   -0.018085   0.020061  -0.012001  -0.020996   0.045671
   17  C  4  S    0.098317  -0.111230   0.064181   0.117847  -0.267234
   18  C  4  X   -0.233365  -0.211167  -0.447234   0.424424  -0.119117
   19  C  4  Y   -0.342964  -0.240894   0.002838  -0.164790   0.109492
   20  C  4  Z   -0.404427  -0.463280   0.172295  -0.182162  -0.077215
   21  H  5  S   -0.054952  -0.065353   0.457096   0.374290  -0.010344
   22  H  6  S    0.002369   0.003861  -0.435096  -0.446702  -0.158500
   23  H  7  S   -0.138668  -0.155895   0.229364   0.657761   0.753434
   24  H  8  S   -0.138668   0.155895  -0.229363   0.657762  -0.753433
   25  H  9  S   -0.054952   0.065354  -0.457095   0.374290   0.010344
   26  H 10  S    0.002369  -0.003861   0.435096  -0.446703   0.158499

                     21         22         23         24         25
                    0.7059     0.7064     0.8920     0.9749     1.0324
                     A          A          A          A          A   
    1  C  1  S   -0.139283   0.142114  -0.016604  -0.028543   0.075338
    2  C  1  S    0.905862  -0.920401   0.108985   0.220660  -0.608953
    3  C  1  X    0.039836  -0.042733   0.623455  -0.601479  -0.170323
    4  C  1  Y   -0.326284   0.352547   0.020582   0.360284  -0.623961
    5  C  1  Z   -0.240017   0.184980   0.308811  -0.105428  -0.465218
    6  C  2  S    0.001984  -0.015239   0.070665   0.053719  -0.054516
    7  C  2  S    0.017933   0.072579  -0.497956  -0.380360   0.472091
    8  C  2  X   -0.033136  -0.027625  -0.481834   0.628441   0.363950
    9  C  2  Y    0.117967  -0.147862  -0.020197  -0.014280  -0.717323
   10  C  2  Z    0.154782  -0.039376  -0.191582   0.430094  -0.428618
   11  C  3  S   -0.001984  -0.015239   0.070665  -0.053719   0.054516
   12  C  3  S   -0.017933   0.072580  -0.497956   0.380359  -0.472093
   13  C  3  X   -0.033715   0.027477   0.481114   0.626828   0.365555
   14  C  3  Y    0.117390   0.147713   0.019479  -0.015889  -0.715725
   15  C  3  Z   -0.155096  -0.040029  -0.193456  -0.432384   0.429927
   16  C  4  S    0.139283   0.142113  -0.016604   0.028543  -0.075338
   17  C  4  S   -0.905866  -0.920397   0.108985  -0.220660   0.608955
   18  C  4  X    0.040736   0.043426  -0.622295  -0.601082  -0.168578
   19  C  4  Y   -0.325389  -0.351853  -0.019427   0.360678  -0.622223
   20  C  4  Z    0.241082   0.186131   0.311215   0.106334   0.468176
   21  H  5  S   -0.631486   0.659680  -0.451412   0.434816   0.063044
   22  H  6  S   -0.635414   0.617430   0.462245  -0.376309  -0.206078
   23  H  7  S   -0.075665   0.011546   0.561144  -0.384514  -0.032805
   24  H  8  S    0.075665   0.011545   0.561144   0.384514   0.032804
   25  H  9  S    0.631489   0.659677  -0.451412  -0.434816  -0.063043
   26  H 10  S    0.635417   0.617427   0.462245   0.376309   0.206078

                     26
                    1.0512
                     A   
    1  C  1  S   -0.083082
    2  C  1  S    0.666589
    3  C  1  X   -0.126426
    4  C  1  Y    0.679033
    5  C  1  Z    0.440547
    6  C  2  S    0.084993
    7  C  2  S   -0.678397
    8  C  2  X    0.099163
    9  C  2  Y    0.747983
   10  C  2  Z    0.393770
   11  C  3  S    0.084992
   12  C  3  S   -0.678397
   13  C  3  X   -0.097687
   14  C  3  Y   -0.746507
   15  C  3  Z    0.396923
   16  C  4  S   -0.083082
   17  C  4  S    0.666587
   18  C  4  X    0.128078
   19  C  4  Y   -0.677386
   20  C  4  Z    0.442598
   21  H  5  S    0.107453
   22  H  6  S    0.031516
   23  H  7  S   -0.122162
   24  H  8  S   -0.122163
   25  H  9  S    0.107454
   26  H 10  S    0.031515

 THE NUCLEAR REPULSION AT THE IRC POINT IS      104.2511225721

 * * * IRC RESTART INFORMATION * * *
 COORDINATES FOR $DATA AND ENTIRE $IRC GROUP FOLLOW

 COORDINATES OF SYMMETRY UNIQUE ATOMS (ANGS)
   ATOM   CHARGE       X              Y              Z
 ------------------------------------------------------------
 C           6.0   0.2772258712  -1.3966351328  -0.2819032542
 C           6.0   0.1924611082  -0.2922866989   0.4169254056
 C           6.0  -1.0077018195   0.6218418433   0.4174656079
 C           6.0  -1.0950865805   1.7235778492  -0.2851535623
 H           1.0   1.1569616507  -2.0249903347  -0.2530418080
 H           1.0  -0.5243315287  -1.7365740643  -0.9238659077
 H           1.0   1.0216683176   0.0130237394   1.0489603625
 H           1.0  -1.8345374111   0.3188960414   1.0537312679
 H           1.0  -1.9747122362   2.3520430028  -0.2553451546
 H           1.0  -0.2959377592   2.0611148751  -0.9313723418
 $IRC   PACE=GS2        STRIDE= 0.30000   NPOINT=??
        STOTAL=  0.299957   NEXTPT=   2
        NPRT= 0   NPUN= 0   SADDLE=.FALSE.
        GA(  1)= 2.550233779E-05, 2.447523770E-04,-2.627246618E-04
        GA(  4)=-1.022390909E-04,-1.460862093E-04, 2.667171466E-04
        GA(  7)= 1.031970333E-04, 1.470790563E-04, 2.657955271E-04
        GA( 10)=-2.645203545E-05,-2.457370669E-04,-2.617023558E-04
        GA( 13)=-8.962567679E-06, 7.223366553E-07,-1.072500361E-05
        GA( 16)= 2.211563361E-05, 6.431029450E-05,-7.584193931E-05
        GA( 19)=-2.824818204E-05,-6.011161009E-05, 8.253903136E-05
        GA( 22)= 2.855484072E-05, 6.042719755E-05, 8.221879880E-05
        GA( 25)= 8.929883732E-06,-7.539577777E-07,-1.075215182E-05
        GA( 28)=-2.239785558E-05,-6.460241808E-05,-7.552439115E-05
 $END   
 A GS2 RESTART ALSO REQUIRES THE UPDATED $HESS GROUP FROM THE PUNCH FILE

 *********************************************
 ***** STARTING CONSTRAINED OPTIMIZATION *****
 *** TO FIND THE NEXT REACTION PATH POINT ****
 *********************************************
 CONSTRAINED OPTIMIZATION POINT   1 FOR PATH POINT   2
 COORDINATES OF SYMMETRY UNIQUE ATOMS (ANGS)
   ATOM   CHARGE       X              Y              Z
 ------------------------------------------------------------
 C           6.0   0.2760478411  -1.4079418537  -0.2697663707
 C           6.0   0.1971841316  -0.2855381241   0.4046040500
 C           6.0  -1.0124690964   0.6150474026   0.4051868274
 C           6.0  -1.0938646780   1.7349300590  -0.2730639056
 H           1.0   1.1618915034  -2.0253878629  -0.2471421342
 H           1.0  -0.5364958754  -1.7719478809  -0.8821494961
 H           1.0   1.0372059330   0.0460878074   1.0035602445
 H           1.0  -1.8502437024   0.2856583862   1.0085072915
 H           1.0  -1.9796241097   2.3524579257  -0.2494305487
 H           1.0  -0.2836181779   2.0966493725  -0.8898305960
 ...... END OF ONE-ELECTRON INTEGRALS ......
 CPU     0: STEP CPU TIME=     0.00 TOTAL CPU TIME=        0.2 (    0.0 MIN)
 TOTAL WALL CLOCK TIME=        0.2 SECONDS, CPU UTILIZATION IS 100.00%
 TOTAL NUMBER OF NONZERO TWO-ELECTRON INTEGRALS =               59515
          7 INTEGRAL RECORDS WERE STORED ON DISK FILE  8.
  ...... END OF TWO-ELECTRON INTEGRALS .....
 CPU     0: STEP CPU TIME=     0.01 TOTAL CPU TIME=        0.2 (    0.0 MIN)
 TOTAL WALL CLOCK TIME=        0.2 SECONDS, CPU UTILIZATION IS 100.00%

          --------------------------
                 RHF SCF CALCULATION
          --------------------------
     DENSITY MATRIX CONV=  1.00E-05

 ITER EX DEM     TOTAL ENERGY        E CHANGE  DENSITY CHANGE     ORB. GRAD
          ---------------START SECOND ORDER SCF---------------
   1  0  0     -153.0100146055  -153.0100146055   0.021026464   0.009180164
   2  1  0     -153.0113081198    -0.0012935143   0.012588370   0.003170970
   3  2  0     -153.0115503306    -0.0002422107   0.001025421   0.000710914
   4  3  0     -153.0115542786    -0.0000039481   0.000783084   0.000330310
   5  4  0     -153.0115550845    -0.0000008059   0.000065519   0.000028290
   6  5  0     -153.0115550946    -0.0000000101   0.000036675   0.000011608
   7  6  0     -153.0115550970    -0.0000000025   0.000008249   0.000003248
   8  7  0     -153.0115550972    -0.0000000001   0.000001515   0.000000714

          -----------------
          DENSITY CONVERGED
          -----------------
     TIME TO FORM FOCK OPERATORS=       0.0 SECONDS (       0.0 SEC/ITER)
     TIME TO SOLVE SCF EQUATIONS=       0.0 SECONDS (       0.0 SEC/ITER)

 FINAL RHF ENERGY IS     -153.0115550972 AFTER   8 ITERATIONS
 ...... END OF RHF CALCULATION ......
 CPU     0: STEP CPU TIME=     0.00 TOTAL CPU TIME=        0.2 (    0.0 MIN)
 TOTAL WALL CLOCK TIME=        0.2 SECONDS, CPU UTILIZATION IS 100.00%
 ..... END OF 1-ELECTRON GRADIENT ......
 CPU     0: STEP CPU TIME=     0.01 TOTAL CPU TIME=        0.2 (    0.0 MIN)
 TOTAL WALL CLOCK TIME=        0.2 SECONDS, CPU UTILIZATION IS 100.00%
 ...... END OF 2-ELECTRON GRADIENT ......
 CPU     0: STEP CPU TIME=     0.01 TOTAL CPU TIME=        0.2 (    0.0 MIN)
 TOTAL WALL CLOCK TIME=        0.2 SECONDS, CPU UTILIZATION IS 100.00%

 UNITS ARE HARTREE/BOHR    E'X               E'Y               E'Z 
    1 C                0.000167321      -0.003372184      -0.002984429
    2 C                0.001724551       0.003424233       0.003708136
    3 C               -0.001711010      -0.003411138       0.003728630
    4 C               -0.000179507       0.003361989      -0.002996930
    5 H               -0.001133783       0.000755147      -0.000005018
    6 H                0.000914221       0.000322055       0.000356712
    7 H               -0.001950091      -0.000697361      -0.001075755
    8 H                0.001946668       0.000693439      -0.001086196
    9 H                0.001134229      -0.000755589      -0.000006417
   10 H               -0.000912599      -0.000320593       0.000361265

 CURRENT OPTIMIZATION POINT :
 ENERGY                                 =  -153.0115551 HARTREE
 MASS WEIGHTED TANGENT GRADIENT NORM    =     0.0049589 HARTREE/BOHR-SQRT(AMU)
 NEXT GEOMETRY STEP HAS PREDICTED ANGLE =         6.461 DEGREES
 AND CARTESIAN RMS DISPLACEMENT         =     0.0109393 BOHR

 CONSTRAINED OPTIMIZATION POINT   2 FOR PATH POINT   2
 COORDINATES OF SYMMETRY UNIQUE ATOMS (ANGS)
   ATOM   CHARGE       X              Y              Z
 ------------------------------------------------------------
 C           6.0   0.2759491204  -1.4068662908  -0.2693761497
 C           6.0   0.1967929156  -0.2862722533   0.4042990767
 C           6.0  -1.0120798132   0.6157804472   0.4048776332
 C           6.0  -1.0937637492   1.7338557715  -0.2726697271
 H           1.0   1.1630544520  -2.0250378126  -0.2484317230
 H           1.0  -0.5382473119  -1.7709816508  -0.8814936082
 H           1.0   1.0398085601   0.0464867802   1.0031726849
 H           1.0  -1.8528487198   0.2852599419   1.0081335530
 H           1.0  -1.9807903646   2.3521051835  -0.2507137883
 H           1.0  -0.2818643231   2.0956830345  -0.8891792811
 ...... END OF ONE-ELECTRON INTEGRALS ......
 CPU     0: STEP CPU TIME=     0.00 TOTAL CPU TIME=        0.2 (    0.0 MIN)
 TOTAL WALL CLOCK TIME=        0.2 SECONDS, CPU UTILIZATION IS 100.00%
 TOTAL NUMBER OF NONZERO TWO-ELECTRON INTEGRALS =               59520
          7 INTEGRAL RECORDS WERE STORED ON DISK FILE  8.
  ...... END OF TWO-ELECTRON INTEGRALS .....
 CPU     0: STEP CPU TIME=     0.01 TOTAL CPU TIME=        0.2 (    0.0 MIN)
 TOTAL WALL CLOCK TIME=        0.2 SECONDS, CPU UTILIZATION IS 100.00%

          --------------------------
                 RHF SCF CALCULATION
          --------------------------
     DENSITY MATRIX CONV=  1.00E-05

 ITER EX DEM     TOTAL ENERGY        E CHANGE  DENSITY CHANGE     ORB. GRAD
          ---------------START SECOND ORDER SCF---------------
   1  0  0     -153.0115839915  -153.0115839915   0.000522472   0.000375566
   2  1  0     -153.0115856678    -0.0000016763   0.000246774   0.000086559
   3  2  0     -153.0115858549    -0.0000001871   0.000033159   0.000019325
   4  3  0     -153.0115858601    -0.0000000052   0.000018230   0.000007703
   5  4  0     -153.0115858611    -0.0000000010   0.000002666   0.000001297
   6  5  0     -153.0115858612     0.0000000000   0.000000584   0.000000289

          -----------------
          DENSITY CONVERGED
          -----------------
     TIME TO FORM FOCK OPERATORS=       0.0 SECONDS (       0.0 SEC/ITER)
     TIME TO SOLVE SCF EQUATIONS=       0.0 SECONDS (       0.0 SEC/ITER)

 FINAL RHF ENERGY IS     -153.0115858612 AFTER   6 ITERATIONS
 ...... END OF RHF CALCULATION ......
 CPU     0: STEP CPU TIME=     0.00 TOTAL CPU TIME=        0.2 (    0.0 MIN)
 TOTAL WALL CLOCK TIME=        0.2 SECONDS, CPU UTILIZATION IS 100.00%
 ..... END OF 1-ELECTRON GRADIENT ......
 CPU     0: STEP CPU TIME=     0.01 TOTAL CPU TIME=        0.2 (    0.0 MIN)
 TOTAL WALL CLOCK TIME=        0.2 SECONDS, CPU UTILIZATION IS 100.00%
 ...... END OF 2-ELECTRON GRADIENT ......
 CPU     0: STEP CPU TIME=     0.01 TOTAL CPU TIME=        0.2 (    0.0 MIN)
 TOTAL WALL CLOCK TIME=        0.2 SECONDS, CPU UTILIZATION IS 100.00%

 UNITS ARE HARTREE/BOHR    E'X               E'Y               E'Z 
    1 C                0.000044664       0.000308000      -0.000763820
    2 C               -0.000296623      -0.000256176       0.000818041
    3 C                0.000299885       0.000259310       0.000816127
    4 C               -0.000047607      -0.000310809      -0.000762604
    5 H               -0.000021754       0.000014709      -0.000030453
    6 H                0.000055207       0.000111679      -0.000158942
    7 H               -0.000019440      -0.000041603       0.000135337
    8 H                0.000019838       0.000041996       0.000135108
    9 H                0.000021598      -0.000014850      -0.000030476
   10 H               -0.000055768      -0.000112256      -0.000158317

 ANGLE TO PREVIOUS OPTIMIZATION POINT IS   6.461
 LINEAR INTERPOLATION GIVES ANGLE          6.447

 CURRENT OPTIMIZATION POINT :
 ENERGY                                 =  -153.0115859 HARTREE
 MASS WEIGHTED TANGENT GRADIENT NORM    =     0.0002126 HARTREE/BOHR-SQRT(AMU)
 NEXT GEOMETRY STEP HAS PREDICTED ANGLE =         3.314 DEGREES
 AND CARTESIAN RMS DISPLACEMENT         =     0.0069530 BOHR

 CONSTRAINED OPTIMIZATION POINT   3 FOR PATH POINT   2
 COORDINATES OF SYMMETRY UNIQUE ATOMS (ANGS)
   ATOM   CHARGE       X              Y              Z
 ------------------------------------------------------------
 C           6.0   0.2761392628  -1.4071053377  -0.2691194567
 C           6.0   0.1967930232  -0.2862737694   0.4038759190
 C           6.0  -1.0120822052   0.6157802571   0.4044545291
 C           6.0  -1.0939524214   1.7340957348  -0.2724130993
 H           1.0   1.1628885874  -2.0257705179  -0.2470083346
 H           1.0  -0.5375245057  -1.7709607675  -0.8820945019
 H           1.0   1.0389397932   0.0455532734   1.0043351213
 H           1.0  -1.8519754101   0.2861998117   1.0092911173
 H           1.0  -1.9806173324   2.3528449300  -0.2492929507
 H           1.0  -0.2825891440   2.0956581497  -0.8897783416
 ...... END OF ONE-ELECTRON INTEGRALS ......
 CPU     0: STEP CPU TIME=     0.00 TOTAL CPU TIME=        0.2 (    0.0 MIN)
 TOTAL WALL CLOCK TIME=        0.2 SECONDS, CPU UTILIZATION IS 100.00%
 TOTAL NUMBER OF NONZERO TWO-ELECTRON INTEGRALS =               59521
          7 INTEGRAL RECORDS WERE STORED ON DISK FILE  8.
  ...... END OF TWO-ELECTRON INTEGRALS .....
 CPU     0: STEP CPU TIME=     0.01 TOTAL CPU TIME=        0.2 (    0.0 MIN)
 TOTAL WALL CLOCK TIME=        0.2 SECONDS, CPU UTILIZATION IS 100.00%

          --------------------------
                 RHF SCF CALCULATION
          --------------------------
     DENSITY MATRIX CONV=  1.00E-05

 ITER EX DEM     TOTAL ENERGY        E CHANGE  DENSITY CHANGE     ORB. GRAD
          ---------------START SECOND ORDER SCF---------------
   1  0  0     -153.0115850379  -153.0115850379   0.000473529   0.000296756
   2  1  0     -153.0115862644    -0.0000012265   0.000311954   0.000125184
   3  2  0     -153.0115865047    -0.0000002404   0.000021066   0.000013775
   4  3  0     -153.0115865072    -0.0000000024   0.000014539   0.000004531
   5  4  0     -153.0115865075    -0.0000000004   0.000003488   0.000001663
   6  5  0     -153.0115865075     0.0000000000   0.000000602   0.000000464

          -----------------
          DENSITY CONVERGED
          -----------------
     TIME TO FORM FOCK OPERATORS=       0.0 SECONDS (       0.0 SEC/ITER)
     TIME TO SOLVE SCF EQUATIONS=       0.0 SECONDS (       0.0 SEC/ITER)

 FINAL RHF ENERGY IS     -153.0115865075 AFTER   6 ITERATIONS
 ...... END OF RHF CALCULATION ......
 CPU     0: STEP CPU TIME=     0.00 TOTAL CPU TIME=        0.2 (    0.0 MIN)
 TOTAL WALL CLOCK TIME=        0.2 SECONDS, CPU UTILIZATION IS 100.00%
 ..... END OF 1-ELECTRON GRADIENT ......
 CPU     0: STEP CPU TIME=     0.01 TOTAL CPU TIME=        0.3 (    0.0 MIN)
 TOTAL WALL CLOCK TIME=        0.3 SECONDS, CPU UTILIZATION IS 100.00%
 ...... END OF 2-ELECTRON GRADIENT ......
 CPU     0: STEP CPU TIME=     0.01 TOTAL CPU TIME=        0.3 (    0.0 MIN)
 TOTAL WALL CLOCK TIME=        0.3 SECONDS, CPU UTILIZATION IS 100.00%

 UNITS ARE HARTREE/BOHR    E'X               E'Y               E'Z 
    1 C                0.000043881       0.000457058      -0.000570296
    2 C               -0.000160806      -0.000253533       0.000608681
    3 C                0.000162962       0.000255715       0.000607207
    4 C               -0.000045972      -0.000459110      -0.000568489
    5 H               -0.000018177      -0.000005233      -0.000028501
    6 H                0.000054091       0.000121022      -0.000152019
    7 H               -0.000095808      -0.000129614       0.000142125
    8 H                0.000096488       0.000130205       0.000141175
    9 H                0.000018111       0.000005109      -0.000028598
   10 H               -0.000054770      -0.000121621      -0.000151286

 ANGLE TO PREVIOUS OPTIMIZATION POINT IS   3.314
 LINEAR INTERPOLATION GIVES ANGLE          3.283

 CURRENT OPTIMIZATION POINT :
 ENERGY                                 =  -153.0115865 HARTREE
 MASS WEIGHTED TANGENT GRADIENT NORM    =     0.0000556 HARTREE/BOHR-SQRT(AMU)
 NEXT GEOMETRY STEP HAS PREDICTED ANGLE =         0.123 DEGREES
 AND CARTESIAN RMS DISPLACEMENT         =     0.0002461 BOHR

 *******************************************
 ***** END OF CONSTRAINED OPTIMIZATION *****
 *******************************************

 ANGLE BETWEEN GRADIENTS AT CURRENT AND PREVIOUS IRC POINT =   6.068
 ENERGY WAS LOWERED BY      0.0000314104 HARTREE DURING OPTIMIZATION

 ***** NEXT POINT ON IRC FOUND *****
 STEP DISTANCE IS   0.29958 SQRT(AMU)-BOHR)

1         POINT   2 ON THE REACTION PATH
          ******************************
          AT PATH DISTANCE STOTAL =   0.59954     SQRT(AMU)-BOHR
          TOTAL ENERGY            =  -153.0115865 HARTREE
            3 CONSTRAINED OPTIMIZATION STEPS WERE PERFORMED
  
 COORDINATES OF ALL ATOMS ARE (ANGS)
   ATOM   CHARGE       X              Y              Z
 ------------------------------------------------------------
 C           6.0   0.2761392628  -1.4071053377  -0.2691194567
 C           6.0   0.1967930232  -0.2862737694   0.4038759190
 C           6.0  -1.0120822052   0.6157802571   0.4044545291
 C           6.0  -1.0939524214   1.7340957348  -0.2724130993
 H           1.0   1.1628885874  -2.0257705179  -0.2470083346
 H           1.0  -0.5375245057  -1.7709607675  -0.8820945019
 H           1.0   1.0389397932   0.0455532734   1.0043351213
 H           1.0  -1.8519754101   0.2861998117   1.0092911173
 H           1.0  -1.9806173324   2.3528449300  -0.2492929507
 H           1.0  -0.2825891440   2.0956581497  -0.8897783416
  

          INTERNUCLEAR DISTANCES (ANGS.)
          ------------------------------

                1 C          2 C          3 C          4 C          5 H     

   1 C       0.0000000    1.3097641 *  2.4910405 *  3.4269967    1.0814619 *
   2 C       1.3097641 *  0.0000000    1.5083372 *  2.4910407 *  2.0935233 *
   3 C       2.4910405 *  1.5083372 *  0.0000000    1.3097641 *  3.4832014  
   4 C       3.4269967    2.4910407 *  1.3097641 *  0.0000000    4.3852675  
   5 H       1.0814619 *  2.0935233 *  3.4832014    4.3852675    0.0000000  
   6 H       1.0817476 *  2.0969591 *  2.7526253 *  3.6009366    1.8329395 *
   7 H       2.0769613 *  1.0862190 *  2.2117203 *  3.0050775    2.4231397 *
   8 H       3.0050770    2.2117201 *  1.0862187 *  2.0769610 *  4.0016122  
   9 H       4.3852673    3.4832015    2.0935233 *  1.0814619 *  5.3901677  
  10 H       3.6009370    2.7526257 *  2.0969591 *  1.0817475 *  4.4146046  

                6 H          7 H          8 H          9 H         10 H     

   1 C       1.0817476 *  2.0769613 *  3.0050770    4.3852673    3.6009370  
   2 C       2.0969591 *  1.0862190 *  2.2117201 *  3.4832015    2.7526257 *
   3 C       2.7526253 *  2.2117203 *  1.0862187 *  2.0935233 *  2.0969591 *
   4 C       3.6009366    3.0050775    2.0769610 *  1.0814619 *  1.0817475 *
   5 H       1.8329395 *  2.4231397 *  4.0016122    5.3901677    4.4146046  
   6 H       0.0000000    3.0567270    3.0882083    4.4146040    3.8750217  
   7 H       3.0567270    0.0000000    2.9009181 *  4.0016126    3.0882090  
   8 H       3.0882083    2.9009181 *  0.0000000    2.4231394 *  3.0567266  
   9 H       4.4146040    4.0016126    2.4231394 *  0.0000000    1.8329393 *
  10 H       3.8750217    3.0882090    3.0567266    1.8329393 *  0.0000000  

  * ... LESS THAN  3.000


          CURRENT CARTESIAN GRADIENT
          ATOM               DE/DX          DE/DY          DE/DZ
          -----------------------------------------------------------
          C                0.0000438909   0.0004556201  -0.0005721132
          C               -0.0001620106  -0.0002534843   0.0006106564
          C                0.0001641767   0.0002556756   0.0006091789
          C               -0.0000459891  -0.0004576789  -0.0005703114
          H               -0.0000182316  -0.0000050352  -0.0000285181
          H                0.0000541182   0.0001209410  -0.0001520719
          H               -0.0000951463  -0.0001288205   0.0001420392
          H                0.0000958238   0.0001294103   0.0001410950
          H                0.0000181644   0.0000049113  -0.0000286143
          H               -0.0000547965  -0.0001215394  -0.0001513406

 THE NUCLEAR REPULSION AT THE IRC POINT IS      104.2311897108

 * * * IRC RESTART INFORMATION * * *
 COORDINATES FOR $DATA AND ENTIRE $IRC GROUP FOLLOW

 COORDINATES OF SYMMETRY UNIQUE ATOMS (ANGS)
   ATOM   CHARGE       X              Y              Z
 ------------------------------------------------------------
 C           6.0   0.2761392628  -1.4071053377  -0.2691194567
 C           6.0   0.1967930232  -0.2862737694   0.4038759190
 C           6.0  -1.0120822052   0.6157802571   0.4044545291
 C           6.0  -1.0939524214   1.7340957348  -0.2724130993
 H           1.0   1.1628885874  -2.0257705179  -0.2470083346
 H           1.0  -0.5375245057  -1.7709607675  -0.8820945019
 H           1.0   1.0389397932   0.0455532734   1.0043351213
 H           1.0  -1.8519754101   0.2861998117   1.0092911173
 H           1.0  -1.9806173324   2.3528449300  -0.2492929507
 H           1.0  -0.2825891440   2.0956581497  -0.8897783416
 $IRC   PACE=GS2        STRIDE= 0.30000   NPOINT=??
        STOTAL=  0.599537   NEXTPT=   3
        NPRT= 0   NPUN= 0   SADDLE=.FALSE.
        GA(  1)= 4.389092195E-05, 4.556201491E-04,-5.721131538E-04
        GA(  4)=-1.620105600E-04,-2.534842986E-04, 6.106563512E-04
        GA(  7)= 1.641766897E-04, 2.556755875E-04, 6.091789409E-04
        GA( 10)=-4.598912744E-05,-4.576789453E-04,-5.703113820E-04
        GA( 13)=-1.823158484E-05,-5.035223162E-06,-2.851814401E-05
        GA( 16)= 5.411821880E-05, 1.209410137E-04,-1.520718976E-04
        GA( 19)=-9.514625614E-05,-1.288204926E-04, 1.420391865E-04
        GA( 22)= 9.582378880E-05, 1.294102901E-04, 1.410950347E-04
        GA( 25)= 1.816444754E-05, 4.911348750E-06,-2.861430616E-05
        GA( 28)=-5.479653693E-05,-1.215394303E-04,-1.513406299E-04
 $END   
 A GS2 RESTART ALSO REQUIRES THE UPDATED $HESS GROUP FROM THE PUNCH FILE

 *********************************************
 ***** STARTING CONSTRAINED OPTIMIZATION *****
 *** TO FIND THE NEXT REACTION PATH POINT ****
 *********************************************
 CONSTRAINED OPTIMIZATION POINT   1 FOR PATH POINT   3
 COORDINATES OF SYMMETRY UNIQUE ATOMS (ANGS)
   ATOM   CHARGE       X              Y              Z
 ------------------------------------------------------------
 C           6.0   0.2751427423  -1.4174297088  -0.2561549751
 C           6.0   0.2004649713  -0.2805285699   0.3900393912
 C           6.0  -1.0158032274   0.6099854081   0.3906514861
 C           6.0  -1.0929083589   1.7444667598  -0.2594894540
 H           1.0   1.1678101863  -2.0244049921  -0.2393252882
 H           1.0  -0.5521357648  -1.8035988607  -0.8410499548
 H           1.0   1.0646244007   0.0803260818   0.9659928737
 H           1.0  -1.8778429020   0.2512677786   0.9712037082
 H           1.0  -1.9855208788   2.3515127692  -0.2415839302
 H           1.0  -0.2677948117   2.1284577718  -0.8489311554
 ...... END OF ONE-ELECTRON INTEGRALS ......
 CPU     0: STEP CPU TIME=     0.00 TOTAL CPU TIME=        0.3 (    0.0 MIN)
 TOTAL WALL CLOCK TIME=        0.3 SECONDS, CPU UTILIZATION IS 100.00%
 TOTAL NUMBER OF NONZERO TWO-ELECTRON INTEGRALS =               59504
          6 INTEGRAL RECORDS WERE STORED ON DISK FILE  8.
  ...... END OF TWO-ELECTRON INTEGRALS .....
 CPU     0: STEP CPU TIME=     0.01 TOTAL CPU TIME=        0.3 (    0.0 MIN)
 TOTAL WALL CLOCK TIME=        0.3 SECONDS, CPU UTILIZATION IS 100.00%

          --------------------------
                 RHF SCF CALCULATION
          --------------------------
     DENSITY MATRIX CONV=  1.00E-05

 ITER EX DEM     TOTAL ENERGY        E CHANGE  DENSITY CHANGE     ORB. GRAD
          ---------------START SECOND ORDER SCF---------------
   1  0  0     -153.0099855807  -153.0099855807   0.020661711   0.009480584
   2  1  0     -153.0112462542    -0.0012606734   0.012289012   0.003129992
   3  2  0     -153.0114800398    -0.0002337857   0.001920916   0.000824518
   4  3  0     -153.0114847864    -0.0000047466   0.001016445   0.000405116
   5  4  0     -153.0114859367    -0.0000011502   0.000105242   0.000033302
   6  5  0     -153.0114859626    -0.0000000259   0.000030517   0.000016225
   7  6  0     -153.0114859665    -0.0000000039   0.000008244   0.000003587
   8  7  0     -153.0114859667    -0.0000000002   0.000001597   0.000000924

          -----------------
          DENSITY CONVERGED
          -----------------
     TIME TO FORM FOCK OPERATORS=       0.0 SECONDS (       0.0 SEC/ITER)
     TIME TO SOLVE SCF EQUATIONS=       0.0 SECONDS (       0.0 SEC/ITER)

 FINAL RHF ENERGY IS     -153.0114859667 AFTER   8 ITERATIONS
 ...... END OF RHF CALCULATION ......
 CPU     0: STEP CPU TIME=     0.00 TOTAL CPU TIME=        0.3 (    0.0 MIN)
 TOTAL WALL CLOCK TIME=        0.3 SECONDS, CPU UTILIZATION IS 100.00%
 ..... END OF 1-ELECTRON GRADIENT ......
 CPU     0: STEP CPU TIME=     0.01 TOTAL CPU TIME=        0.3 (    0.0 MIN)
 TOTAL WALL CLOCK TIME=        0.3 SECONDS, CPU UTILIZATION IS 100.00%
 ...... END OF 2-ELECTRON GRADIENT ......
 CPU     0: STEP CPU TIME=     0.01 TOTAL CPU TIME=        0.3 (    0.0 MIN)
 TOTAL WALL CLOCK TIME=        0.3 SECONDS, CPU UTILIZATION IS 100.00%

 UNITS ARE HARTREE/BOHR    E'X               E'Y               E'Z 
    1 C                0.002848675       0.000277334       0.000233449
    2 C               -0.009048436      -0.004036057      -0.005326087
    3 C                0.009064230       0.004037934      -0.005403188
    4 C               -0.002865154      -0.000300087       0.000267162
    5 H               -0.001188969       0.001259835       0.000206666
    6 H               -0.001890953      -0.000413714      -0.001451707
    7 H                0.009053913       0.003599377       0.006336762
    8 H               -0.009066730      -0.003590917       0.006408621
    9 H                0.001180451      -0.001253733       0.000207726
   10 H                0.001912973       0.000420029      -0.001479405

 CURRENT OPTIMIZATION POINT :
 ENERGY                                 =  -153.0114860 HARTREE
 MASS WEIGHTED TANGENT GRADIENT NORM    =     0.0175391 HARTREE/BOHR-SQRT(AMU)
 NEXT GEOMETRY STEP HAS PREDICTED ANGLE =        18.992 DEGREES
 AND CARTESIAN RMS DISPLACEMENT         =     0.0466825 BOHR

 ......ENERGY IS GOING UP......

 CONSTRAINED OPTIMIZATION POINT   2 FOR PATH POINT   3
 COORDINATES OF SYMMETRY UNIQUE ATOMS (ANGS)
   ATOM   CHARGE       X              Y              Z
 ------------------------------------------------------------
 C           6.0   0.2760982847  -1.4186888377  -0.2556914622
 C           6.0   0.2003736298  -0.2809462319   0.3894477452
 C           6.0  -1.0157397678   0.6103938100   0.3900611834
 C           6.0  -1.0938434670   1.7457306486  -0.2590237742
 H           1.0   1.1693528204  -2.0280416358  -0.2361892100
 H           1.0  -0.5466053869  -1.8057226020  -0.8420312876
 H           1.0   1.0513486675   0.0724187601   0.9653635187
 H           1.0  -1.8645300899   0.2592491805   0.9705292021
 H           1.0  -1.9869855565   2.3552083906  -0.2384360488
 H           1.0  -0.2733515475   2.1305020369  -0.8499203992
 ...... END OF ONE-ELECTRON INTEGRALS ......
 CPU     0: STEP CPU TIME=     0.00 TOTAL CPU TIME=        0.3 (    0.0 MIN)
 TOTAL WALL CLOCK TIME=        0.3 SECONDS, CPU UTILIZATION IS 100.00%
 TOTAL NUMBER OF NONZERO TWO-ELECTRON INTEGRALS =               59500
          7 INTEGRAL RECORDS WERE STORED ON DISK FILE  8.
  ...... END OF TWO-ELECTRON INTEGRALS .....
 CPU     0: STEP CPU TIME=     0.01 TOTAL CPU TIME=        0.3 (    0.0 MIN)
 TOTAL WALL CLOCK TIME=        0.3 SECONDS, CPU UTILIZATION IS 100.00%

          --------------------------
                 RHF SCF CALCULATION
          --------------------------
     DENSITY MATRIX CONV=  1.00E-05

 ITER EX DEM     TOTAL ENERGY        E CHANGE  DENSITY CHANGE     ORB. GRAD
          ---------------START SECOND ORDER SCF---------------
   1  0  0     -153.0117676651  -153.0117676651   0.001852181   0.001286100
   2  1  0     -153.0117872871    -0.0000196220   0.001202171   0.000375931
   3  2  0     -153.0117903847    -0.0000030976   0.000262428   0.000194687
   4  3  0     -153.0117906528    -0.0000002681   0.000056556   0.000025186
   5  4  0     -153.0117906681    -0.0000000153   0.000015786   0.000009427
   6  5  0     -153.0117906693    -0.0000000012   0.000001983   0.000001063
   7  6  0     -153.0117906693     0.0000000000   0.000001187   0.000000400

          -----------------
          DENSITY CONVERGED
          -----------------
     TIME TO FORM FOCK OPERATORS=       0.0 SECONDS (       0.0 SEC/ITER)
     TIME TO SOLVE SCF EQUATIONS=       0.0 SECONDS (       0.0 SEC/ITER)

 FINAL RHF ENERGY IS     -153.0117906693 AFTER   7 ITERATIONS
 ...... END OF RHF CALCULATION ......
 CPU     0: STEP CPU TIME=     0.00 TOTAL CPU TIME=        0.3 (    0.0 MIN)
 TOTAL WALL CLOCK TIME=        0.3 SECONDS, CPU UTILIZATION IS 100.00%
 ..... END OF 1-ELECTRON GRADIENT ......
 CPU     0: STEP CPU TIME=     0.01 TOTAL CPU TIME=        0.3 (    0.0 MIN)
 TOTAL WALL CLOCK TIME=        0.3 SECONDS, CPU UTILIZATION IS 100.00%
 ...... END OF 2-ELECTRON GRADIENT ......
 CPU     0: STEP CPU TIME=     0.01 TOTAL CPU TIME=        0.3 (    0.0 MIN)
 TOTAL WALL CLOCK TIME=        0.3 SECONDS, CPU UTILIZATION IS 100.00%

 UNITS ARE HARTREE/BOHR    E'X               E'Y               E'Z 
    1 C                0.000072977       0.000191281      -0.000787149
    2 C               -0.000394226       0.000169556       0.000251313
    3 C                0.000388354      -0.000176518       0.000246156
    4 C               -0.000070240      -0.000186264      -0.000785763
    5 H                0.000076104       0.000078422      -0.000058497
    6 H               -0.000049199       0.000063249      -0.000184387
    7 H                0.000087593      -0.000250875       0.000780233
    8 H               -0.000079905       0.000257739       0.000778668
    9 H               -0.000074181      -0.000079113      -0.000058495
   10 H                0.000042721      -0.000067477      -0.000182079

 ANGLE TO PREVIOUS OPTIMIZATION POINT IS  18.992
 LINEAR INTERPOLATION GIVES ANGLE         18.892

 CURRENT OPTIMIZATION POINT :
 ENERGY                                 =  -153.0117907 HARTREE
 MASS WEIGHTED TANGENT GRADIENT NORM    =     0.0009860 HARTREE/BOHR-SQRT(AMU)
 NEXT GEOMETRY STEP HAS PREDICTED ANGLE =        12.954 DEGREES
 AND CARTESIAN RMS DISPLACEMENT         =     0.0278352 BOHR

 CONSTRAINED OPTIMIZATION POINT   3 FOR PATH POINT   3
 COORDINATES OF SYMMETRY UNIQUE ATOMS (ANGS)
   ATOM   CHARGE       X              Y              Z
[...]
    9 H               -0.000375096       0.000698595      -0.000004128
   10 H               -0.001580410      -0.001127148      -0.000804305

 ANGLE TO PREVIOUS OPTIMIZATION POINT IS  58.487
 LINEAR INTERPOLATION GIVES ANGLE         55.772

 CURRENT OPTIMIZATION POINT :
 ENERGY                                 =  -153.0202750 HARTREE
 MASS WEIGHTED TANGENT GRADIENT NORM    =     0.0035613 HARTREE/BOHR-SQRT(AMU)
 NEXT GEOMETRY STEP HAS PREDICTED ANGLE =        44.154 DEGREES
 AND CARTESIAN RMS DISPLACEMENT         =     0.1005165 BOHR

 CONSTRAINED OPTIMIZATION POINT   3 FOR PATH POINT  23
 COORDINATES OF SYMMETRY UNIQUE ATOMS (ANGS)
   ATOM   CHARGE       X              Y              Z
 ------------------------------------------------------------
 C           6.0   0.2788991179  -1.5386481944   0.0592538986
 C           6.0   0.2259178153  -0.2265464467   0.0506310394
 C           6.0  -1.0418499461   0.5545561742   0.0515251119
 C           6.0  -1.0960841914   1.8670108200   0.0558212799
 H           1.0   1.2183248642  -2.0744840851   0.0609938054
 H           1.0  -0.6150460694  -2.1479820526   0.0665219778
 H           1.0   1.1395208690   0.3584505844   0.0430742773
 H           1.0  -1.9542879427  -0.0308356166   0.0518390955
 H           1.0  -2.0355375220   2.4013094661   0.0564905316
 H           1.0  -0.2036752282   2.4785493618   0.0567130053
 ...... END OF ONE-ELECTRON INTEGRALS ......
 CPU     0: STEP CPU TIME=     0.00 TOTAL CPU TIME=        3.2 (    0.1 MIN)
 TOTAL WALL CLOCK TIME=        3.2 SECONDS, CPU UTILIZATION IS 100.00%
 TOTAL NUMBER OF NONZERO TWO-ELECTRON INTEGRALS =               58273
          7 INTEGRAL RECORDS WERE STORED ON DISK FILE  8.
  ...... END OF TWO-ELECTRON INTEGRALS .....
 CPU     0: STEP CPU TIME=     0.01 TOTAL CPU TIME=        3.2 (    0.1 MIN)
 TOTAL WALL CLOCK TIME=        3.2 SECONDS, CPU UTILIZATION IS 100.00%

          --------------------------
                 RHF SCF CALCULATION
          --------------------------
     DENSITY MATRIX CONV=  1.00E-05

 ITER EX DEM     TOTAL ENERGY        E CHANGE  DENSITY CHANGE     ORB. GRAD
          ---------------START SECOND ORDER SCF---------------
   1  0  0     -153.0201026424  -153.0201026424   0.008300792   0.003822227
   2  1  0     -153.0203176331    -0.0002149907   0.005679229   0.001575793
   3  2  0     -153.0203616817    -0.0000440485   0.000337626   0.000195653
   4  3  0     -153.0203621932    -0.0000005115   0.000172962   0.000062985
   5  4  0     -153.0203622710    -0.0000000778   0.000064450   0.000014673
   6  5  0     -153.0203622752    -0.0000000042   0.000006940   0.000003158
   7  6  0     -153.0203622754    -0.0000000002   0.000004113   0.000001752

          -----------------
          DENSITY CONVERGED
          -----------------
     TIME TO FORM FOCK OPERATORS=       0.0 SECONDS (       0.0 SEC/ITER)
     TIME TO SOLVE SCF EQUATIONS=       0.0 SECONDS (       0.0 SEC/ITER)

 FINAL RHF ENERGY IS     -153.0203622754 AFTER   7 ITERATIONS
 ...... END OF RHF CALCULATION ......
 CPU     0: STEP CPU TIME=     0.00 TOTAL CPU TIME=        3.2 (    0.1 MIN)
 TOTAL WALL CLOCK TIME=        3.2 SECONDS, CPU UTILIZATION IS 100.00%
 ..... END OF 1-ELECTRON GRADIENT ......
 CPU     0: STEP CPU TIME=     0.01 TOTAL CPU TIME=        3.3 (    0.1 MIN)
 TOTAL WALL CLOCK TIME=        3.3 SECONDS, CPU UTILIZATION IS 100.00%
 ...... END OF 2-ELECTRON GRADIENT ......
 CPU     0: STEP CPU TIME=     0.01 TOTAL CPU TIME=        3.3 (    0.1 MIN)
 TOTAL WALL CLOCK TIME=        3.3 SECONDS, CPU UTILIZATION IS 100.00%

 UNITS ARE HARTREE/BOHR    E'X               E'Y               E'Z 
    1 C               -0.000349975       0.000422181      -0.000094572
    2 C               -0.000174996      -0.000380293       0.000061526
    3 C               -0.000504524      -0.000677376      -0.000248464
    4 C               -0.000125522       0.000418402       0.000306104
    5 H                0.000284326       0.000003652       0.000121716
    6 H               -0.000215070      -0.000018411      -0.000010401
    7 H                0.000339577       0.000290439      -0.000104847
    8 H                0.000316788       0.000037208       0.000090330
    9 H                0.000374363      -0.000278957      -0.000109927
   10 H                0.000055033       0.000183156      -0.000011465

 ANGLE TO PREVIOUS OPTIMIZATION POINT IS  44.154
 LINEAR INTERPOLATION GIVES ANGLE         43.664

 CURRENT OPTIMIZATION POINT :
 ENERGY                                 =  -153.0203623 HARTREE
 MASS WEIGHTED TANGENT GRADIENT NORM    =     0.0009076 HARTREE/BOHR-SQRT(AMU)
 NEXT GEOMETRY STEP HAS PREDICTED ANGLE =         4.753 DEGREES
 AND CARTESIAN RMS DISPLACEMENT         =     0.0087022 BOHR

 CONSTRAINED OPTIMIZATION POINT   4 FOR PATH POINT  23
 COORDINATES OF SYMMETRY UNIQUE ATOMS (ANGS)
   ATOM   CHARGE       X              Y              Z
 ------------------------------------------------------------
 C           6.0   0.2796403519  -1.5391627627   0.0593653072
 C           6.0   0.2253518982  -0.2269427163   0.0504531910
 C           6.0  -1.0420291049   0.5550910198   0.0516860702
 C           6.0  -1.0961634665   1.8673921265   0.0556211336
 H           1.0   1.2191788773  -2.0744339698   0.0604465224
 H           1.0  -0.6133547608  -2.1496675457   0.0668897103
 H           1.0   1.1386561461   0.3576177649   0.0438892169
 H           1.0  -1.9553396338  -0.0294667996   0.0507119252
 H           1.0  -2.0355347380   2.4027634924   0.0577327137
 H           1.0  -0.2033172600   2.4781314405   0.0572202977
 ...... END OF ONE-ELECTRON INTEGRALS ......
 CPU     0: STEP CPU TIME=     0.00 TOTAL CPU TIME=        3.3 (    0.1 MIN)
 TOTAL WALL CLOCK TIME=        3.3 SECONDS, CPU UTILIZATION IS 100.00%
 TOTAL NUMBER OF NONZERO TWO-ELECTRON INTEGRALS =               58281
          7 INTEGRAL RECORDS WERE STORED ON DISK FILE  8.
  ...... END OF TWO-ELECTRON INTEGRALS .....
 CPU     0: STEP CPU TIME=     0.01 TOTAL CPU TIME=        3.3 (    0.1 MIN)
 TOTAL WALL CLOCK TIME=        3.3 SECONDS, CPU UTILIZATION IS 100.00%

          --------------------------
                 RHF SCF CALCULATION
          --------------------------
     DENSITY MATRIX CONV=  1.00E-05

 ITER EX DEM     TOTAL ENERGY        E CHANGE  DENSITY CHANGE     ORB. GRAD
          ---------------START SECOND ORDER SCF---------------
   1  0  0     -153.0203636018  -153.0203636018   0.000432869   0.000169905
   2  1  0     -153.0203643180    -0.0000007162   0.000191152   0.000048907
   3  2  0     -153.0203643872    -0.0000000692   0.000016241   0.000007014
   4  3  0     -153.0203643879    -0.0000000008   0.000014784   0.000003124
   5  4  0     -153.0203643881    -0.0000000002   0.000002264   0.000000635

          -----------------
          DENSITY CONVERGED
          -----------------
     TIME TO FORM FOCK OPERATORS=       0.0 SECONDS (       0.0 SEC/ITER)
     TIME TO SOLVE SCF EQUATIONS=       0.0 SECONDS (       0.0 SEC/ITER)

 FINAL RHF ENERGY IS     -153.0203643881 AFTER   5 ITERATIONS
 ...... END OF RHF CALCULATION ......
 CPU     0: STEP CPU TIME=     0.00 TOTAL CPU TIME=        3.3 (    0.1 MIN)
 TOTAL WALL CLOCK TIME=        3.3 SECONDS, CPU UTILIZATION IS 100.00%
 ..... END OF 1-ELECTRON GRADIENT ......
 CPU     0: STEP CPU TIME=     0.01 TOTAL CPU TIME=        3.3 (    0.1 MIN)
 TOTAL WALL CLOCK TIME=        3.3 SECONDS, CPU UTILIZATION IS 100.00%
 ...... END OF 2-ELECTRON GRADIENT ......
 CPU     0: STEP CPU TIME=     0.01 TOTAL CPU TIME=        3.3 (    0.1 MIN)
 TOTAL WALL CLOCK TIME=        3.3 SECONDS, CPU UTILIZATION IS 100.00%

 UNITS ARE HARTREE/BOHR    E'X               E'Y               E'Z 
    1 C                0.000004442       0.000092559      -0.000002592
    2 C               -0.000024145      -0.000044792      -0.000118952
    3 C               -0.000030452      -0.000054048      -0.000004582
    4 C               -0.000020594      -0.000014345       0.000034466
    5 H                0.000073652      -0.000029944       0.000061455
    6 H               -0.000054611      -0.000010601       0.000019405
    7 H               -0.000036112      -0.000017646      -0.000002958
    8 H                0.000054003       0.000013917      -0.000018091
    9 H                0.000024362       0.000012001       0.000015157
   10 H                0.000009455       0.000052900       0.000016692

 ANGLE TO PREVIOUS OPTIMIZATION POINT IS   4.753
 LINEAR INTERPOLATION GIVES ANGLE          4.824

 CURRENT OPTIMIZATION POINT :
 ENERGY                                 =  -153.0203644 HARTREE
 MASS WEIGHTED TANGENT GRADIENT NORM    =     0.0001468 HARTREE/BOHR-SQRT(AMU)
 NEXT GEOMETRY STEP HAS PREDICTED ANGLE =         0.901 DEGREES
 AND CARTESIAN RMS DISPLACEMENT         =     0.0021033 BOHR

 CONSTRAINED OPTIMIZATION POINT   5 FOR PATH POINT  23
 COORDINATES OF SYMMETRY UNIQUE ATOMS (ANGS)
   ATOM   CHARGE       X              Y              Z
 ------------------------------------------------------------
 C           6.0   0.2795877820  -1.5391764473   0.0594036114
 C           6.0   0.2254438028  -0.2268952738   0.0505311583
 C           6.0  -1.0420156959   0.5550854502   0.0516593584
 C           6.0  -1.0961960887   1.8673874510   0.0556414798
 H           1.0   1.2189766555  -2.0744911383   0.0596105591
 H           1.0  -0.6133795046  -2.1496200642   0.0671332800
 H           1.0   1.1388064013   0.3576816854   0.0435867695
 H           1.0  -1.9554335685  -0.0294501796   0.0505010360
 H           1.0  -2.0356614242   2.4026425349   0.0573804841
 H           1.0  -0.2032595118   2.4779015801   0.0573696256
 ...... END OF ONE-ELECTRON INTEGRALS ......
 CPU     0: STEP CPU TIME=     0.00 TOTAL CPU TIME=        3.3 (    0.1 MIN)
 TOTAL WALL CLOCK TIME=        3.3 SECONDS, CPU UTILIZATION IS 100.00%
 TOTAL NUMBER OF NONZERO TWO-ELECTRON INTEGRALS =               58269
          7 INTEGRAL RECORDS WERE STORED ON DISK FILE  8.
  ...... END OF TWO-ELECTRON INTEGRALS .....
 CPU     0: STEP CPU TIME=     0.01 TOTAL CPU TIME=        3.3 (    0.1 MIN)
 TOTAL WALL CLOCK TIME=        3.3 SECONDS, CPU UTILIZATION IS 100.00%

          --------------------------
                 RHF SCF CALCULATION
          --------------------------
     DENSITY MATRIX CONV=  1.00E-05

 ITER EX DEM     TOTAL ENERGY        E CHANGE  DENSITY CHANGE     ORB. GRAD
          ---------------START SECOND ORDER SCF---------------
   1  0  0     -153.0203643730  -153.0203643730   0.000241304   0.000073285
   2  1  0     -153.0203644563    -0.0000000833   0.000157105   0.000030757
   3  2  0     -153.0203644726    -0.0000000163   0.000016052   0.000004976
   4  3  0     -153.0203644729    -0.0000000003   0.000004661   0.000002657
   5  4  0     -153.0203644730    -0.0000000001   0.000001325   0.000000526

          -----------------
          DENSITY CONVERGED
          -----------------
     TIME TO FORM FOCK OPERATORS=       0.0 SECONDS (       0.0 SEC/ITER)
     TIME TO SOLVE SCF EQUATIONS=       0.0 SECONDS (       0.0 SEC/ITER)

 FINAL RHF ENERGY IS     -153.0203644730 AFTER   5 ITERATIONS
 ...... END OF RHF CALCULATION ......
 CPU     0: STEP CPU TIME=     0.00 TOTAL CPU TIME=        3.3 (    0.1 MIN)
 TOTAL WALL CLOCK TIME=        3.3 SECONDS, CPU UTILIZATION IS 100.00%
 ..... END OF 1-ELECTRON GRADIENT ......
 CPU     0: STEP CPU TIME=     0.01 TOTAL CPU TIME=        3.3 (    0.1 MIN)
 TOTAL WALL CLOCK TIME=        3.3 SECONDS, CPU UTILIZATION IS 100.00%
 ...... END OF 2-ELECTRON GRADIENT ......
 CPU     0: STEP CPU TIME=     0.01 TOTAL CPU TIME=        3.3 (    0.1 MIN)
 TOTAL WALL CLOCK TIME=        3.3 SECONDS, CPU UTILIZATION IS 100.00%

 UNITS ARE HARTREE/BOHR    E'X               E'Y               E'Z 
    1 C                0.000016991      -0.000061550       0.000050124
    2 C                0.000002569       0.000026491      -0.000088905
    3 C                0.000015327      -0.000030776      -0.000043671
    4 C                0.000015537       0.000049323       0.000062263
    5 H               -0.000018018       0.000016958       0.000015574
    6 H               -0.000005223       0.000003471       0.000016129
    7 H                0.000011383       0.000015200      -0.000007375
    8 H               -0.000020308      -0.000005019      -0.000017791
    9 H               -0.000015327      -0.000002569       0.000002227
   10 H               -0.000002932      -0.000011531       0.000011425

 STOPPING BECAUSE GRADIENT IS BELOW -OPTTOL-
 YOUR RUN IS PROBABLY VERY NEAR A PES MINIMUM.
 MAX GRADIENT= 0.000089 RMS GRADIENT= 0.000030


 *******************************************
 ***** END OF CONSTRAINED OPTIMIZATION *****
 *******************************************

 ANGLE BETWEEN GRADIENTS AT CURRENT AND PREVIOUS IRC POINT =  30.901
 ENERGY WAS LOWERED BY      0.0014309764 HARTREE DURING OPTIMIZATION

 ***** NEXT POINT ON IRC FOUND *****
 STEP DISTANCE IS   0.28916 SQRT(AMU)-BOHR)

1         POINT  23 ON THE REACTION PATH
          ******************************
          AT PATH DISTANCE STOTAL =   6.85606     SQRT(AMU)-BOHR
          TOTAL ENERGY            =  -153.0203645 HARTREE
            5 CONSTRAINED OPTIMIZATION STEPS WERE PERFORMED
  
 COORDINATES OF ALL ATOMS ARE (ANGS)
   ATOM   CHARGE       X              Y              Z
 ------------------------------------------------------------
 C           6.0   0.2795877820  -1.5391764473   0.0594036114
 C           6.0   0.2254438028  -0.2268952738   0.0505311583
 C           6.0  -1.0420156959   0.5550854502   0.0516593584
 C           6.0  -1.0961960887   1.8673874510   0.0556414798
 H           1.0   1.2189766555  -2.0744911383   0.0596105591
 H           1.0  -0.6133795046  -2.1496200642   0.0671332800
 H           1.0   1.1388064013   0.3576816854   0.0435867695
 H           1.0  -1.9554335685  -0.0294501796   0.0505010360
 H           1.0  -2.0356614242   2.4026425349   0.0573804841
 H           1.0  -0.2032595118   2.4779015801   0.0573696256
  

          INTERNUCLEAR DISTANCES (ANGS.)
          ------------------------------

                1 C          2 C          3 C          4 C          5 H     

   1 C       0.0000000    1.3134276 *  2.4764145 *  3.6738907    1.0812092 *
   2 C       1.3134276 *  0.0000000    1.4892779 *  2.4764447 *  2.0978085 *
   3 C       2.4764145 *  1.4892779 *  0.0000000    1.3134260 *  3.4679710  
   4 C       3.6738907    2.4764447 *  1.3134260 *  0.0000000    4.5714820  
   5 H       1.0812092 *  2.0978085 *  3.4679710    4.5714820    0.0000000  
   6 H       1.0817078 *  2.0978014 *  2.7385033 *  4.0459354    1.8339111 *
   7 H       2.0824451 *  1.0844398 *  2.1897531 *  2.6971453 *  2.4335465 *
   8 H       2.6971602 *  2.1897969 *  1.0844425 *  2.0823805 *  3.7761297  
   9 H       4.5714680    3.4680128    2.0978159 *  1.0812475 *  5.5351061  
  10 H       4.0459933    2.7385688 *  2.0978004 *  1.0816960 *  4.7693857  

                6 H          7 H          8 H          9 H         10 H     

   1 C       1.0817078 *  2.0824451 *  2.6971602 *  4.5714680    4.0459933  
   2 C       2.0978014 *  1.0844398 *  2.1897969 *  3.4680128    2.7385688 *
   3 C       2.7385033 *  2.1897531 *  1.0844425 *  2.0978159 *  2.0978004 *
   4 C       4.0459354    2.6971453 *  2.0823805 *  1.0812475 *  1.0816960 *
   5 H       1.8339111 *  2.4335465 *  3.7761297    5.5351061    4.7693857  
   6 H       0.0000000    3.0589658    2.5092840 *  4.7692846    4.6456701  
   7 H       3.0589658    0.0000000    3.1183714    3.7761490    2.5093153 *
   8 H       2.5092840 *  3.1183714    0.0000000    2.4334253 *  3.0589171  
   9 H       4.7692846    3.7761490    2.4334253 *  0.0000000    1.8339468 *
  10 H       4.6456701    2.5093153 *  3.0589171    1.8339468 *  0.0000000  

  * ... LESS THAN  3.000


          CURRENT CARTESIAN GRADIENT
          ATOM               DE/DX          DE/DY          DE/DZ
          -----------------------------------------------------------
          C                0.0000169908  -0.0000615496   0.0000501244
          C                0.0000025690   0.0000264914  -0.0000889050
          C                0.0000153269  -0.0000307755  -0.0000436713
          C                0.0000155365   0.0000493232   0.0000622625
          H               -0.0000180176   0.0000169584   0.0000155742
          H               -0.0000052226   0.0000034707   0.0000161286
          H                0.0000113833   0.0000152001  -0.0000073746
          H               -0.0000203079  -0.0000050193  -0.0000177911
          H               -0.0000153268  -0.0000025687   0.0000022271
          H               -0.0000029316  -0.0000115306   0.0000114250

 THE NUCLEAR REPULSION AT THE IRC POINT IS      104.0976481078

 * * * IRC RESTART INFORMATION * * *
 COORDINATES FOR $DATA AND ENTIRE $IRC GROUP FOLLOW

 COORDINATES OF SYMMETRY UNIQUE ATOMS (ANGS)
   ATOM   CHARGE       X              Y              Z
 ------------------------------------------------------------
 C           6.0   0.2795877820  -1.5391764473   0.0594036114
 C           6.0   0.2254438028  -0.2268952738   0.0505311583
 C           6.0  -1.0420156959   0.5550854502   0.0516593584
 C           6.0  -1.0961960887   1.8673874510   0.0556414798
 H           1.0   1.2189766555  -2.0744911383   0.0596105591
 H           1.0  -0.6133795046  -2.1496200642   0.0671332800
 H           1.0   1.1388064013   0.3576816854   0.0435867695
 H           1.0  -1.9554335685  -0.0294501796   0.0505010360
 H           1.0  -2.0356614242   2.4026425349   0.0573804841
 H           1.0  -0.2032595118   2.4779015801   0.0573696256
 $IRC   PACE=GS2        STRIDE= 0.30000   NPOINT=??
        STOTAL=  6.856059   NEXTPT=  24
        NPRT= 0   NPUN= 0   SADDLE=.FALSE.
        GA(  1)= 1.699077506E-05,-6.154964345E-05, 5.012442631E-05
        GA(  4)= 2.568972927E-06, 2.649144832E-05,-8.890499355E-05
        GA(  7)= 1.532690375E-05,-3.077554486E-05,-4.367126342E-05
        GA( 10)= 1.553653968E-05, 4.932320581E-05, 6.226251458E-05
        GA( 13)=-1.801757241E-05, 1.695836307E-05, 1.557424644E-05
        GA( 16)=-5.222566977E-06, 3.470709568E-06, 1.612861114E-05
        GA( 19)= 1.138327344E-05, 1.520010233E-05,-7.374605485E-06
        GA( 22)=-2.030787752E-05,-5.019269652E-06,-1.779109788E-05
        GA( 25)=-1.532682415E-05,-2.568737816E-06, 2.227136795E-06
        GA( 28)=-2.931624505E-06,-1.153063590E-05, 1.142502514E-05
 $END   
 A GS2 RESTART ALSO REQUIRES THE UPDATED $HESS GROUP FROM THE PUNCH FILE
 ......DONE WITH THIS PORTION OF THE IRC......
 CPU     0: STEP CPU TIME=     0.00 TOTAL CPU TIME=        3.3 (    0.1 MIN)
 TOTAL WALL CLOCK TIME=        3.3 SECONDS, CPU UTILIZATION IS 100.00%
                   580000  WORDS OF DYNAMIC MEMORY USED
 EXECUTION OF GAMESS TERMINATED NORMALLY Mon Nov 18 14:41:07 2019
 DDI: 263624 bytes (0.3 MB / 0 MWords) used by master data server.

 ----------------------------------------
 CPU timing information for all processes
 ========================================
 0: 2.355615 + 0.249601 = 2.605216
 1: 2.527216 + 0.202801 = 2.730017
 2: 2.932818 + 0.124800 = 3.057618
 3: 1.934412 + 0.249601 = 2.184013
 4: 2.184014 + 0.218401 = 2.402415
 5: 0.015600 + 0.015600 = 0.031200
 6: 0.015600 + 0.000000 = 0.015600
 7: 0.015600 + 0.015600 = 0.031200
 ----------------------------------------
           Disk usage (in bytes)       
 ========================================
 ----------------------------------------
            Local date and time          
 ========================================
18.11.2019 - 14:41:13.50                          
