          ******************************************************
          *         GAMESS VERSION =  1 MAY 2013 (R1)          *
          *             FROM IOWA STATE UNIVERSITY             *
          * M.W.SCHMIDT, K.K.BALDRIDGE, J.A.BOATZ, S.T.ELBERT, *
          *   M.S.GORDON, J.H.JENSEN, S.KOSEKI, N.MATSUNAGA,   *
          *          K.A.NGUYEN, S.J.SU, T.L.WINDUS,           *
          *       TOGETHER WITH M.DUPUIS, J.A.MONTGOMERY       *
          *         J.COMPUT.CHEM.  14, 1347-1363(1993)        *
          *************** 64 BIT WINDOWS VERSION ***************

  SINCE 1993, STUDENTS AND POSTDOCS WORKING AT IOWA STATE UNIVERSITY
  AND ALSO IN THEIR VARIOUS JOBS AFTER LEAVING ISU HAVE MADE IMPORTANT
  CONTRIBUTIONS TO THE CODE:
     IVANA ADAMOVIC, CHRISTINE AIKENS, YURI ALEXEEV, POOJA ARORA,
     ANDREY ASADCHEV, ROB BELL, PRADIPTA BANDYOPADHYAY, JONATHAN BENTZ,
     BRETT BODE, GALINA CHABAN, WEI CHEN, CHEOL HO CHOI, PAUL DAY,
     ALBERT DEFUSCO, TIM DUDLEY, DMITRI FEDOROV, GRAHAM FLETCHER,
     MARK FREITAG, KURT GLAESEMANN, DAN KEMP, GRANT MERRILL,
     NORIYUKI MINEZAWA, JONATHAN MULLIN, TAKESHI NAGATA,
     SEAN NEDD, HEATHER NETZLOFF, BOSILJKA NJEGIC, RYAN OLSON, MIKE PAK,
     JIM SHOEMAKER, LYUDMILA SLIPCHENKO, SAROM SOK, JIE SONG,
     TETSUYA TAKETSUGU, SIMON WEBB, SOOHAENG YOO, FEDERICO ZAHARIEV

  ADDITIONAL CODE HAS BEEN PROVIDED BY COLLABORATORS IN OTHER GROUPS:
     IOWA STATE UNIVERSITY:
          JOE IVANIC, LAIMUTIS BYTAUTAS, KLAUS RUEDENBERG
     UNIVERSITY OF TOKYO: KIMIHIKO HIRAO, TAKAHITO NAKAJIMA,
          TAKAO TSUNEDA, MUNEAKI KAMIYA, SUSUMU YANAGISAWA,
          KIYOSHI YAGI, MAHITO CHIBA, SEIKEN TOKURA, NAOAKI KAWAKAMI
     UNIVERSITY OF AARHUS: FRANK JENSEN
     UNIVERSITY OF IOWA: VISVALDAS KAIRYS, HUI LI
     NATIONAL INST. OF STANDARDS AND TECHNOLOGY: WALT STEVENS, DAVID GARMER
     UNIVERSITY OF PISA: BENEDETTA MENNUCCI, JACOPO TOMASI
     UNIVERSITY OF MEMPHIS: HENRY KURTZ, PRAKASHAN KORAMBATH
     UNIVERSITY OF ALBERTA: TOBY ZENG, MARIUSZ KLOBUKOWSKI
     UNIVERSITY OF NEW ENGLAND: MARK SPACKMAN
     MIE UNIVERSITY: HIROAKI UMEDA
     MICHIGAN STATE UNIVERSITY:
          KAROL KOWALSKI, MARTA WLOCH, JEFFREY GOUR, JESSE LUTZ,
          WEI LI, PIOTR PIECUCH
     UNIVERSITY OF SILESIA: MONIKA MUSIAL, STANISLAW KUCHARSKI
     FACULTES UNIVERSITAIRES NOTRE-DAME DE LA PAIX:
          OLIVIER QUINET, BENOIT CHAMPAGNE
     UNIVERSITY OF CALIFORNIA - SANTA BARBARA: BERNARD KIRTMAN
     INSTITUTE FOR MOLECULAR SCIENCE:
          KAZUYA ISHIMURA, MICHIO KATOUDA, AND SHIGERU NAGASE
     UNIVERSITY OF NOTRE DAME: DAN CHIPMAN
     KYUSHU UNIVERSITY:
          HARUYUKI NAKANO,
          FENG LONG GU, JACEK KORCHOWIEC, MARCIN MAKOWSKI, AND YURIKO AOKI,
          HIROTOSHI MORI AND EISAKU MIYOSHI
     PENNSYLVANIA STATE UNIVERSITY:
          TZVETELIN IORDANOV, CHET SWALINA, JONATHAN SKONE,
          SHARON HAMMES-SCHIFFER
     WASEDA UNIVERSITY:
          MASATO KOBAYASHI, TOMOKO AKAMA, TSUGUKI TOUMA,
          TAKESHI YOSHIKAWA, YASUHIRO IKABATA, HIROMI NAKAI
     NANJING UNIVERSITY: SHUHUA LI
     UNIVERSITY OF NEBRASKA:
          PEIFENG SU, DEJUN SI, NANDUN THELLAMUREGE, YALI WANG, HUI LI
     UNIVERSITY OF ZURICH:
          ROBERTO PEVERATI, KIM BALDRIDGE
     N. COPERNICUS UNIVERSITY AND JACKSON STATE UNIVERSITY:
          MARIA BARYSZ


 PARALLEL VERSION RUNNING ON     4 PROCESSORS IN     4 NODES.

 EXECUTION OF GAMESS BEGUN Mon Nov 18 14:42:59 2019

            ECHO OF THE FIRST FEW INPUT CARDS -
 INPUT CARD> $CONTRL runtyp=irc UNITS=ANGS $END                                             
 INPUT CARD> $basis gbasis=sto ngauss=3 $end                                                
 INPUT CARD>! $statpt nstep=100 hssend=.t.  ifolow=1 hess=calc                              
 INPUT CARD>! ihrep=3 $end                                                                  
 INPUT CARD> $IRC    PACE=GS2 SADDLE=.TRUE. FORWRD=.true. NPOINT=25 $END                    
 INPUT CARD>! $IRC    stride= $END                                                          
 INPUT CARD>                                                                                
 INPUT CARD> $DATA                                                                          
 INPUT CARD> c4h6 IRC, forward                                                              
 INPUT CARD> c1                                                                             
 INPUT CARD> C           6.0   0.2784387580  -1.3858492389  -0.2944237627                   
 INPUT CARD> C           6.0   0.1877142332  -0.2985409841   0.4297370771                   
 INPUT CARD> C           6.0  -1.0029076938   0.6281438574   0.4302365172                   
 INPUT CARD> C           6.0  -1.0963458364   1.7127452436  -0.2976291862                   
 INPUT CARD> H           1.0   1.1506432384  -2.0243299193  -0.2591914196                   
 INPUT CARD> H           1.0  -0.5101295716  -1.7010552632  -0.9643934825                   
 INPUT CARD> H           1.0   1.0028130265  -0.0206837250   1.0921589349                   
 INPUT CARD> H           1.0  -1.8155200558   0.3527664894   1.0967358167                   
 INPUT CARD> H           1.0  -1.9684151747   2.3513610680  -0.2615152485                   
 INPUT CARD> H           1.0  -0.3102909237   2.0254424721  -0.9717152464                   
 INPUT CARD> $end                                                                           
 INPUT CARD> $HESS                                                                          
 INPUT CARD>ENERGY IS     -153.0114152329 E(NUC) IS      104.2771020044                     
 INPUT CARD> 1  1 7.72564088E-01-1.83460289E-01 2.14381584E-01-1.50305153E-01 5.75238150E-02
 INPUT CARD> 1  2-5.99634692E-04 2.96672820E-03 3.57383845E-02 1.83746968E-02-3.56031299E-03
 INPUT CARD> 1  3-6.13608643E-04 1.88723904E-03-3.38510633E-01 1.90965646E-01-2.56398645E-02
 INPUT CARD> 1  4-2.92720745E-01-7.20714754E-02-1.86125676E-01 1.06238631E-02-2.87699771E-02
 INPUT CARD> 1  5-2.02116449E-02-9.56802825E-04 8.38533133E-04-9.25427259E-04-5.14309942E-04
 INPUT CARD> 1  6-9.12545315E-04-2.59917768E-03 4.13323702E-04 7.61499591E-04 1.45787190E-03
 INPUT CARD> 2  1-1.83460289E-01 9.34950867E-01 4.51304800E-01 4.91122368E-02-6.03317448E-01
 INPUT CARD> 2  2-3.50487071E-01 8.39859046E-03-2.12940487E-02-1.47896003E-02-6.23883724E-04
 INPUT CARD> 2  3 2.82985113E-03-8.77807082E-04 1.94454224E-01-2.06255017E-01-1.57269446E-03
 INPUT CARD> 2  4-7.50820332E-02-1.05821036E-01-7.99923030E-02 8.76365847E-03-2.03213862E-03
 INPUT CARD> 2  5-4.04868969E-03-1.82154980E-03 1.54251185E-04 8.22229913E-05 4.67512516E-04
 INPUT CARD> 2  6 1.02947514E-03 1.05693694E-03-2.08427961E-04-2.44800339E-04-6.75799799E-04
 INPUT CARD> 3  1 2.14381584E-01 4.51304800E-01 6.02697061E-01-7.17851408E-03-3.45946510E-01
 INPUT CARD> 3  2-3.25521855E-01 1.74300551E-03-1.61836781E-03 9.30470937E-03-1.87137918E-03
 INPUT CARD> 3  3 8.69809746E-04 6.24580725E-05-2.29946948E-02-3.46873265E-03-6.65976036E-02
 INPUT CARD> 3  4-1.88413670E-01-7.79942823E-02-2.15609357E-01 6.38168151E-03-2.50572696E-02
 INPUT CARD> 3  5-4.05892247E-03-1.92037693E-03 1.87429945E-03 3.10256574E-04-2.88884652E-04
 INPUT CARD> 3  6-1.06085230E-04-7.99494509E-04 1.61251557E-04 1.42301507E-04 2.12786955E-04
 INPUT CARD> 4  1-1.50305153E-01 4.91122368E-02-7.17851408E-03 6.91317848E-01-1.23234719E-01
 INPUT CARD> 4  2 1.83241917E-01-2.59348830E-01 1.05227962E-01 1.25241533E-03 2.89123812E-03
 INPUT CARD> 4  3 8.44757346E-03-1.75056031E-03 6.90286260E-03 2.98055800E-02 2.09009352E-02
 INPUT CARD> 4  4 1.25343144E-02-2.71263730E-02-1.73803387E-02-2.91280421E-01-6.34595394E-02
 INPUT CARD> 4  5-1.78768791E-01-1.54117671E-02 2.16941391E-02-3.15188620E-03 3.28205615E-03
 INPUT CARD> 4  6 3.13738195E-03 7.14583125E-03-5.82108680E-04-3.60423402E-03-4.31101851E-03
 INPUT CARD> 5  1 5.75238150E-02-6.03317448E-01-3.45946510E-01-1.23234719E-01 9.09379021E-01
 INPUT CARD> 5  2 4.30590448E-01 1.05217490E-01-1.83898877E-01-1.65225059E-03 3.56757603E-02
 INPUT CARD> 5  3-2.12328914E-02 1.59884131E-03-6.35054159E-03-1.13567594E-02-1.67799479E-02
    1000000 WORDS OF MEMORY AVAILABLE

     BASIS OPTIONS
     -------------
     GBASIS=STO          IGAUSS=       3      POLAR=NONE    
     NDFUNC=       0     NFFUNC=       0     DIFFSP=       F
     NPFUNC=       0      DIFFS=       F     BASNAM=        


     RUN TITLE
     ---------
  c4h6 IRC, forward                                                              

 THE POINT GROUP OF THE MOLECULE IS C1      
 THE ORDER OF THE PRINCIPAL AXIS IS     0

 ATOM      ATOMIC                      COORDINATES (BOHR)
           CHARGE         X                   Y                   Z
 C           6.0     0.5261729570       -2.6188753218       -0.5563802358
 C           6.0     0.3547284647       -0.5641606561        0.8120853225
 C           6.0    -1.8952207323        1.1870197714        0.8130291274
 C           6.0    -2.0717932186        3.2366191972       -0.5624376079
 H           1.0     2.1744004302       -3.8254288562       -0.4898007614
 H           1.0    -0.9640051086       -3.2145283374       -1.8224394263
 H           1.0     1.8950418370       -0.0390865727        2.0638811220
 H           1.0    -3.4308354307        0.6666320026        2.0725301745
 H           1.0    -3.7197653103        4.4434281167       -0.4941921613
 H           1.0    -0.5863648223        3.8275312762       -1.8362755538

          INTERNUCLEAR DISTANCES (ANGS.)
          ------------------------------

                1 C          2 C          3 C          4 C          5 H     

   1 C       0.0000000    1.3095339 *  2.4946241 *  3.3898865    1.0814988 *
   2 C       1.3095339 *  0.0000000    1.5087497 *  2.4946231 *  2.0928933 *
   3 C       2.4946241 *  1.5087497 *  0.0000000    1.3095340 *  3.4854999  
   4 C       3.3898865    2.4946231 *  1.3095340 *  0.0000000    4.3607532  
   5 H       1.0814988 *  2.0928933 *  3.4854999    4.3607532    0.0000000  
   6 H       1.0816905 *  2.0970532 *  2.7591650 *  3.5273585    1.8330256 *
   7 H       2.0762964 *  1.0864591 *  2.2095326 *  3.0565920    2.4212806 *
   8 H       3.0565950    2.2095331 *  1.0864589 *  2.0762966 *  4.0357466  
   9 H       4.3607541    3.4854992    2.0928934 *  1.0814986 *  5.3735651  
  10 H       3.5273556    2.7591623 *  2.0970527 *  1.0816903 *  4.3637914  

                6 H          7 H          8 H          9 H         10 H     

   1 C       1.0816905 *  2.0762964 *  3.0565950    4.3607541    3.5273556  
   2 C       2.0970532 *  1.0864591 *  2.2095331 *  3.4854992    2.7591623 *
   3 C       2.7591650 *  2.2095326 *  1.0864589 *  2.0928934 *  2.0970527 *
   4 C       3.5273585    3.0565920    2.0762966 *  1.0814986 *  1.0816903 *
   5 H       1.8330256 *  2.4212806 *  4.0357466    5.3735651    4.3637914  
   6 H       0.0000000    3.0564770    3.1891193    4.3637957    3.7318594  
   7 H       3.0564770    0.0000000    2.8429716 *  4.0357437    3.1891145  
   8 H       3.1891193    2.8429716 *  0.0000000    2.4212813 *  3.0564766  
   9 H       4.3637957    4.0357437    2.4212813 *  0.0000000    1.8330256 *
  10 H       3.7318594    3.1891145    3.0564766    1.8330256 *  0.0000000  

  * ... LESS THAN  3.000


     ATOMIC BASIS SET
     ----------------
 THE CONTRACTED PRIMITIVE FUNCTIONS HAVE BEEN UNNORMALIZED
 THE CONTRACTED BASIS FUNCTIONS ARE NOW NORMALIZED TO UNITY

  SHELL TYPE  PRIMITIVE        EXPONENT          CONTRACTION COEFFICIENT(S)

 C         

      1   S       1            71.6168373    0.154328967295
      1   S       2            13.0450963    0.535328142282
      1   S       3             3.5305122    0.444634542185

      2   L       4             2.9412494   -0.099967229187    0.155916274999
      2   L       5             0.6834831    0.399512826089    0.607683718598
      2   L       6             0.2222899    0.700115468880    0.391957393099

 C         

      3   S       7            71.6168373    0.154328967295
      3   S       8            13.0450963    0.535328142282
      3   S       9             3.5305122    0.444634542185

      4   L      10             2.9412494   -0.099967229187    0.155916274999
      4   L      11             0.6834831    0.399512826089    0.607683718598
      4   L      12             0.2222899    0.700115468880    0.391957393099

 C         

      5   S      13            71.6168373    0.154328967295
      5   S      14            13.0450963    0.535328142282
      5   S      15             3.5305122    0.444634542185

      6   L      16             2.9412494   -0.099967229187    0.155916274999
      6   L      17             0.6834831    0.399512826089    0.607683718598
      6   L      18             0.2222899    0.700115468880    0.391957393099

 C         

      7   S      19            71.6168373    0.154328967295
      7   S      20            13.0450963    0.535328142282
      7   S      21             3.5305122    0.444634542185

      8   L      22             2.9412494   -0.099967229187    0.155916274999
      8   L      23             0.6834831    0.399512826089    0.607683718598
      8   L      24             0.2222899    0.700115468880    0.391957393099

 H         

      9   S      25             3.4252509    0.154328967295
      9   S      26             0.6239137    0.535328142282
      9   S      27             0.1688554    0.444634542185

 H         

     10   S      28             3.4252509    0.154328967295
     10   S      29             0.6239137    0.535328142282
     10   S      30             0.1688554    0.444634542185

 H         

     11   S      31             3.4252509    0.154328967295
     11   S      32             0.6239137    0.535328142282
     11   S      33             0.1688554    0.444634542185

 H         

     12   S      34             3.4252509    0.154328967295
     12   S      35             0.6239137    0.535328142282
     12   S      36             0.1688554    0.444634542185

 H         

     13   S      37             3.4252509    0.154328967295
     13   S      38             0.6239137    0.535328142282
     13   S      39             0.1688554    0.444634542185

 H         

     14   S      40             3.4252509    0.154328967295
     14   S      41             0.6239137    0.535328142282
     14   S      42             0.1688554    0.444634542185

 TOTAL NUMBER OF BASIS SET SHELLS             =   14
 NUMBER OF CARTESIAN GAUSSIAN BASIS FUNCTIONS =   26
 NUMBER OF ELECTRONS                          =   30
 CHARGE OF MOLECULE                           =    0
 SPIN MULTIPLICITY                            =    1
 NUMBER OF OCCUPIED ORBITALS (ALPHA)          =   15
 NUMBER OF OCCUPIED ORBITALS (BETA )          =   15
 TOTAL NUMBER OF ATOMS                        =   10
 THE NUCLEAR REPULSION ENERGY IS      104.2771020041

     $NEO OPTIONS
     ------------
     NUNIQN=       0     BASNUC=DZSNB        NEOSCF=NONE    
     NEOCI =NONE         NUMULT=       2     NUCST =       1
     NAUXNB=       0     VNUCEX=       F     NUCOPT=       F
     NTAUXB=       0     NEOHSS=       F     HSSINI=READH   
     HSSUPD=POWELLUP     DIRNUC=       F     SYMNUC=       F
     QMTOLN= 0.0E+00     USRDEX=       F
     POSNEO=       F     POSPRP=       F
     NEONCI=       F     LOCORB=       0

     $CONTRL OPTIONS
     ---------------
 SCFTYP=RHF          RUNTYP=IRC          EXETYP=RUN     
 MPLEVL=       0     CITYP =NONE         CCTYP =NONE         VBTYP =NONE    
 DFTTYP=NONE         TDDFT =NONE    
 MULT  =       1     ICHARG=       0     NZVAR =       0     COORD =UNIQUE  
 PP    =NONE         RELWFN=NONE         LOCAL =NONE         NUMGRD=       F
 ISPHER=      -1     NOSYM =       0     MAXIT =      30     UNITS =ANGS    
 PLTORB=       F     MOLPLT=       F     AIMPAC=       F     FRIEND=        
 NPRINT=       7     IREST =       0     GEOM  =INPUT   
 NORMF =       0     NORMP =       0     ITOL  =      20     ICUT  =       9
 INTTYP=BEST         GRDTYP=BEST         QMTTOL= 1.0E-06

     $SYSTEM OPTIONS
     ---------------
  REPLICATED MEMORY=     1000000 WORDS (ON EVERY NODE).
 DISTRIBUTED MEMDDI=           0 MILLION WORDS IN AGGREGATE,
 MEMDDI DISTRIBUTED OVER   4 PROCESSORS IS           0 WORDS/PROCESSOR.
 TOTAL MEMORY REQUESTED ON EACH PROCESSOR=     1000000 WORDS.
 TIMLIM=      525600.00 MINUTES, OR     365.0 DAYS.
 PARALL= T  BALTYP=  DLB     KDIAG=    0  COREFL= F
 MXSEQ2=     300 MXSEQ3=     150

          ----------------
          PROPERTIES INPUT
          ----------------

     MOMENTS            FIELD           POTENTIAL          DENSITY
 IEMOM =       1   IEFLD =       0   IEPOT =       0   IEDEN =       0
 WHERE =COMASS     WHERE =NUCLEI     WHERE =NUCLEI     WHERE =NUCLEI  
 OUTPUT=BOTH       OUTPUT=BOTH       OUTPUT=BOTH       OUTPUT=BOTH    
 IEMINT=       0   IEFINT=       0                     IEDINT=       0
                                                       MORB  =       0
          EXTRAPOLATION IN EFFECT
          SOSCF IN EFFECT
 ORBITAL PRINTING OPTION: NPREO=     1    26     2     1

     -------------------------------
     INTEGRAL TRANSFORMATION OPTIONS
     -------------------------------
     NWORD  =            0
     CUTOFF = 1.0E-09     MPTRAN =       0
     DIRTRF =       F     AOINTS =DUP     

          ----------------------
          INTEGRAL INPUT OPTIONS
          ----------------------
 NOPK  =       1 NORDER=       0 SCHWRZ=       T

     ------------------------------------------
     THE POINT GROUP IS C1 , NAXIS= 0, ORDER= 1
     ------------------------------------------

     DIMENSIONS OF THE SYMMETRY SUBSPACES ARE
 A   =   26

 ..... DONE SETTING UP THE RUN .....
 CPU     0: STEP CPU TIME=     0.03 TOTAL CPU TIME=        0.0 (    0.0 MIN)
 TOTAL WALL CLOCK TIME=        0.0 SECONDS, CPU UTILIZATION IS 100.00%

          -----------------------------
          INTRINSIC REACTION COORDINATE
          -----------------------------
          PACE   =GS2     
          STRIDE = 0.30000 BOHR*SQRT(AMU)
          NPOINT =      25
          NEXTPT =       0
          STOTAL =  0.0000 BOHR*SQRT(AMU)
          SAB    =  0.0000 BOHR*SQRT(AMU)
          NPRT   =       0
          NPUN   =       0

          SADDLE =       T
          TSENGY =       F
          FORWRD =       T
          EVIB   = 0.00050 HARTREE
          FREQ   =     0.0 CM**-1

          STABLZ =       F
          ELBOW  =  175.00 DEGREES
          DELTA  = 0.02500 BOHR

          READQB =       F
          EB     =        0.0000000000 HARTREES
          GBNORM =        0.0000000000 HARTREES/SQRT(AMU)-BOHR

          GCUT   = 0.0001000 HARTREES/SQRT(AMU)-BOHR
          RCUT   = 0.0010000 BOHR
          ACUT   =    5.00 DEGREES
          MXOPT  =      20
          IHUPD  =       2

 ATOMIC MASSES USED (IN AMU) ARE
     C             12.0000
     C             12.0000
     C             12.0000
     C             12.0000
     H              1.0078
     H              1.0078
     H              1.0078
     H              1.0078
     H              1.0078
     H              1.0078

 JUMP AWAY FROM SADDLE POINT WILL BE FOUND FROM THE INPUT HESSIAN MATRIX


 JUMPING OFF SADDLE POINT ALONG THE IMAGINARY NORMAL MODE...

 $HESS GROUP READ FROM CARDS
 ENERGY IS     -153.0114152329 E(NUC) IS      104.2771020044                     
 INITIAL DISPLACEMENT= -0.15 ALONG MODE WITH FREQUENCY=     161.327 I CM**-1
 THE COMPONENTS OF THE DISPLACEMENT ARE (BOHR) -
    0.001214   0.010299  -0.011678
   -0.004667  -0.006005   0.011955
    0.004711   0.006050   0.011915
   -0.001258  -0.010342  -0.011635
   -0.006143   0.000541  -0.005759
    0.013924   0.034076  -0.037801
   -0.018548  -0.032381   0.040251
    0.018699   0.032531   0.040061
    0.006122  -0.000562  -0.005780
   -0.014065  -0.034217  -0.037622

 *********************************************
 ***** STARTING CONSTRAINED OPTIMIZATION *****
 *** TO FIND THE NEXT REACTION PATH POINT ****
 *********************************************
 CONSTRAINED OPTIMIZATION POINT   1 FOR PATH POINT   1
 COORDINATES OF SYMMETRY UNIQUE ATOMS (ANGS)
   ATOM   CHARGE       X              Y              Z
 ------------------------------------------------------------
 C           6.0   0.2797239563  -1.3749495532  -0.3067829683
 C           6.0   0.1827753135  -0.3048962898   0.4423899438
 C           6.0  -0.9979213494   0.6345463730   0.4428472117
 C           6.0  -1.0976773536   1.7017994471  -0.3099429017
 H           1.0   1.1441412949  -2.0237573969  -0.2652866243
 H           1.0  -0.4953932467  -1.6649911271  -1.0044000448
 H           1.0   0.9831823645  -0.0549542566   1.1347589954
 H           1.0  -1.7957297228   0.3871959833   1.1391348535
 H           1.0  -1.9619361100   2.3507657762  -0.2676323971
 H           1.0  -0.3251772042   1.9892290306  -1.0115324023
 ...... END OF ONE-ELECTRON INTEGRALS ......
 CPU     0: STEP CPU TIME=     0.00 TOTAL CPU TIME=        0.0 (    0.0 MIN)
 TOTAL WALL CLOCK TIME=        0.0 SECONDS, CPU UTILIZATION IS 100.00%

          -------------
          GUESS OPTIONS
          -------------
          GUESS =HUCKEL            NORB  =       0          NORDER=       0
          MIX   =       F          PRTMO =       F          PUNMO =       F
          TOLZ  = 1.0E-08          TOLE  = 1.0E-05
          SYMDEN=       F          PURIFY=       F

 INITIAL GUESS ORBITALS GENERATED BY HUCKEL   ROUTINE.
 HUCKEL GUESS REQUIRES     14272 WORDS.

 SYMMETRIES FOR INITIAL GUESS ORBITALS FOLLOW.   BOTH SET(S).
    15 ORBITALS ARE OCCUPIED (    4 CORE ORBITALS).
     5=A        6=A        7=A        8=A        9=A       10=A       11=A   
    12=A       13=A       14=A       15=A       16=A       17=A       18=A   
    19=A       20=A       21=A       22=A       23=A       24=A       25=A   
 ...... END OF INITIAL ORBITAL SELECTION ......
 CPU     0: STEP CPU TIME=     0.00 TOTAL CPU TIME=        0.0 (    0.0 MIN)
 TOTAL WALL CLOCK TIME=        0.0 SECONDS, CPU UTILIZATION IS 100.00%

                    ----------------------
                    AO INTEGRAL TECHNOLOGY
                    ----------------------
     S,P,L SHELL ROTATED AXIS INTEGRALS, REPROGRAMMED BY
        KAZUYA ISHIMURA (IMS) AND JOSE SIERRA (SYNSTAR).
     S,P,D,L SHELL ROTATED AXIS INTEGRALS PROGRAMMED BY
        KAZUYA ISHIMURA (INSTITUTE FOR MOLECULAR SCIENCE).
     S,P,D,F,G SHELL TO TOTAL QUARTET ANGULAR MOMENTUM SUM 5,
        ERIC PROGRAM BY GRAHAM FLETCHER (ELORET AND NASA ADVANCED
        SUPERCOMPUTING DIVISION, AMES RESEARCH CENTER).
     S,P,D,F,G,L SHELL GENERAL RYS QUADRATURE PROGRAMMED BY
        MICHEL DUPUIS (PACIFIC NORTHWEST NATIONAL LABORATORY).
 TOTAL NUMBER OF NONZERO TWO-ELECTRON INTEGRALS =               59614
          7 INTEGRAL RECORDS WERE STORED ON DISK FILE  8.
  ...... END OF TWO-ELECTRON INTEGRALS .....
 CPU     0: STEP CPU TIME=     0.04 TOTAL CPU TIME=        0.1 (    0.0 MIN)
 TOTAL WALL CLOCK TIME=        0.1 SECONDS, CPU UTILIZATION IS 100.00%

          --------------------------
                 RHF SCF CALCULATION
          --------------------------
     DENSITY MATRIX CONV=  1.00E-05

 ITER EX DEM     TOTAL ENERGY        E CHANGE  DENSITY CHANGE     ORB. GRAD
   1  0  0     -152.8590820937  -152.8590820937   0.203462707   0.000000000
          ---------------START SECOND ORDER SCF---------------
   2  1  0     -153.0067308900    -0.1476487963   0.055420773   0.016350137
   3  2  0     -153.0108263551    -0.0040954651   0.019807136   0.008436018
   4  3  0     -153.0114414488    -0.0006150937   0.002194022   0.002053144
   5  4  0     -153.0114568738    -0.0000154250   0.000925467   0.000445043
   6  5  0     -153.0114588126    -0.0000019388   0.000343803   0.000150900
   7  6  0     -153.0114589984    -0.0000001857   0.000040120   0.000043788
   8  7  0     -153.0114590047    -0.0000000063   0.000006793   0.000003044
   9  8  0     -153.0114590048    -0.0000000002   0.000002602   0.000000980

          -----------------
          DENSITY CONVERGED
          -----------------
     TIME TO FORM FOCK OPERATORS=       0.0 SECONDS (       0.0 SEC/ITER)
     TIME TO SOLVE SCF EQUATIONS=       0.0 SECONDS (       0.0 SEC/ITER)

 FINAL RHF ENERGY IS     -153.0114590048 AFTER   9 ITERATIONS
 ...... END OF RHF CALCULATION ......
 CPU     0: STEP CPU TIME=     0.01 TOTAL CPU TIME=        0.1 (    0.0 MIN)
 TOTAL WALL CLOCK TIME=        0.1 SECONDS, CPU UTILIZATION IS 100.00%
 ..... END OF 1-ELECTRON GRADIENT ......
 CPU     0: STEP CPU TIME=     0.01 TOTAL CPU TIME=        0.1 (    0.0 MIN)
 TOTAL WALL CLOCK TIME=        0.1 SECONDS, CPU UTILIZATION IS 100.00%
 ...... END OF 2-ELECTRON GRADIENT ......
 CPU     0: STEP CPU TIME=     0.01 TOTAL CPU TIME=        0.1 (    0.0 MIN)
 TOTAL WALL CLOCK TIME=        0.1 SECONDS, CPU UTILIZATION IS 100.00%

 UNITS ARE HARTREE/BOHR    E'X               E'Y               E'Z 
    1 C                0.000219783      -0.000451351       0.000280524
    2 C               -0.000171259       0.000326773      -0.000408473
    3 C                0.000169433      -0.000328547      -0.000407795
    4 C               -0.000218606       0.000452720       0.000279556
    5 H                0.000091978      -0.000012815       0.000061764
    6 H               -0.000472595      -0.000275452      -0.000360448
    7 H                0.000573656       0.000282912       0.000426402
    8 H               -0.000571891      -0.000281203       0.000429558
    9 H               -0.000091684       0.000012978       0.000062071
   10 H                0.000471184       0.000273985      -0.000363159

 CURRENT OPTIMIZATION POINT :
 ENERGY                                 =  -153.0114590 HARTREE
 MASS WEIGHTED TANGENT GRADIENT NORM    =     0.0014442 HARTREE/BOHR-SQRT(AMU)
 NEXT GEOMETRY STEP HAS PREDICTED ANGLE =         2.084 DEGREES
 AND CARTESIAN RMS DISPLACEMENT         =     0.0045415 BOHR

 CONSTRAINED OPTIMIZATION POINT   2 FOR PATH POINT   1
 COORDINATES OF SYMMETRY UNIQUE ATOMS (ANGS)
   ATOM   CHARGE       X              Y              Z
 ------------------------------------------------------------
 C           6.0   0.2796923824  -1.3746734358  -0.3067069320
 C           6.0   0.1826099861  -0.3049548093   0.4423685141
 C           6.0  -0.9977552878   0.6346048929   0.4428246017
 C           6.0  -1.0976460774   1.7015236169  -0.3098660643
 H           1.0   1.1439552622  -2.0235616458  -0.2658121254
 H           1.0  -0.4952961510  -1.6644373865  -1.0034896442
 H           1.0   0.9827725896  -0.0551668330   1.1337270143
 H           1.0  -1.7953240919   0.3874027133   1.1380983798
 H           1.0  -1.9617539497   2.3505664572  -0.2681583789
 H           1.0  -0.3252714820   1.9886812814  -1.0106187333
 ...... END OF ONE-ELECTRON INTEGRALS ......
 CPU     0: STEP CPU TIME=     0.00 TOTAL CPU TIME=        0.1 (    0.0 MIN)
 TOTAL WALL CLOCK TIME=        0.1 SECONDS, CPU UTILIZATION IS 100.00%
 TOTAL NUMBER OF NONZERO TWO-ELECTRON INTEGRALS =               59614
          7 INTEGRAL RECORDS WERE STORED ON DISK FILE  8.
  ...... END OF TWO-ELECTRON INTEGRALS .....
 CPU     0: STEP CPU TIME=     0.01 TOTAL CPU TIME=        0.1 (    0.0 MIN)
 TOTAL WALL CLOCK TIME=        0.1 SECONDS, CPU UTILIZATION IS 100.00%

          --------------------------
                 RHF SCF CALCULATION
          --------------------------
     DENSITY MATRIX CONV=  1.00E-05

 ITER EX DEM     TOTAL ENERGY        E CHANGE  DENSITY CHANGE     ORB. GRAD
          ---------------START SECOND ORDER SCF---------------
   1  0  0     -153.0114613823  -153.0114613823   0.000189174   0.000094054
   2  1  0     -153.0114615776    -0.0000001953   0.000102056   0.000028090
   3  2  0     -153.0114615984    -0.0000000208   0.000015164   0.000006420
   4  3  0     -153.0114615991    -0.0000000006   0.000006709   0.000002973
   5  4  0     -153.0114615992    -0.0000000001   0.000001087   0.000000554

          -----------------
          DENSITY CONVERGED
          -----------------
     TIME TO FORM FOCK OPERATORS=       0.0 SECONDS (       0.0 SEC/ITER)
     TIME TO SOLVE SCF EQUATIONS=       0.0 SECONDS (       0.0 SEC/ITER)

 FINAL RHF ENERGY IS     -153.0114615992 AFTER   5 ITERATIONS
 ...... END OF RHF CALCULATION ......
 CPU     0: STEP CPU TIME=     0.00 TOTAL CPU TIME=        0.1 (    0.0 MIN)
 TOTAL WALL CLOCK TIME=        0.1 SECONDS, CPU UTILIZATION IS 100.00%
 ..... END OF 1-ELECTRON GRADIENT ......
 CPU     0: STEP CPU TIME=     0.01 TOTAL CPU TIME=        0.1 (    0.0 MIN)
 TOTAL WALL CLOCK TIME=        0.1 SECONDS, CPU UTILIZATION IS 100.00%
 ...... END OF 2-ELECTRON GRADIENT ......
 CPU     0: STEP CPU TIME=     0.01 TOTAL CPU TIME=        0.1 (    0.0 MIN)
 TOTAL WALL CLOCK TIME=        0.1 SECONDS, CPU UTILIZATION IS 100.00%

 UNITS ARE HARTREE/BOHR    E'X               E'Y               E'Z 
    1 C               -0.000034598      -0.000234575       0.000231969
    2 C                0.000108069       0.000127623      -0.000229567
    3 C               -0.000109032      -0.000128523      -0.000228621
    4 C                0.000035517       0.000235482       0.000230928
    5 H                0.000010489      -0.000000030       0.000009166
    6 H               -0.000026348      -0.000075016       0.000086505
    7 H                0.000034015       0.000072394      -0.000098046
    8 H               -0.000034303      -0.000072725      -0.000097704
    9 H               -0.000010425       0.000000060       0.000009199
   10 H                0.000026616       0.000075310       0.000086171

 ANGLE TO PREVIOUS OPTIMIZATION POINT IS   2.084
 LINEAR INTERPOLATION GIVES ANGLE          2.025

 CURRENT OPTIMIZATION POINT :
 ENERGY                                 =  -153.0114616 HARTREE
 MASS WEIGHTED TANGENT GRADIENT NORM    =     0.0000503 HARTREE/BOHR-SQRT(AMU)
 NEXT GEOMETRY STEP HAS PREDICTED ANGLE =         1.173 DEGREES
 AND CARTESIAN RMS DISPLACEMENT         =     0.0023795 BOHR

 CONSTRAINED OPTIMIZATION POINT   3 FOR PATH POINT   1
 COORDINATES OF SYMMETRY UNIQUE ATOMS (ANGS)
   ATOM   CHARGE       X              Y              Z
 ------------------------------------------------------------
 C           6.0   0.2797809636  -1.3748136942  -0.3066306305
 C           6.0   0.1825872610  -0.3049867306   0.4422503285
 C           6.0  -0.9977330196   0.6346363838   0.4427062353
 C           6.0  -1.0977343585   1.7016641500  -0.3097899564
 H           1.0   1.1439588079  -2.0237965996  -0.2653343945
 H           1.0  -0.4949265761  -1.6644598151  -1.0037957386
 H           1.0   0.9824717165  -0.0554328606   1.1340571254
 H           1.0  -1.7950220854   0.3876699505   1.1384264625
 H           1.0  -1.9617557015   2.3508032174  -0.2676814850
 H           1.0  -0.3256421157   1.9887025468  -1.0109235849
 ...... END OF ONE-ELECTRON INTEGRALS ......
 CPU     0: STEP CPU TIME=     0.00 TOTAL CPU TIME=        0.1 (    0.0 MIN)
 TOTAL WALL CLOCK TIME=        0.1 SECONDS, CPU UTILIZATION IS 100.00%
 TOTAL NUMBER OF NONZERO TWO-ELECTRON INTEGRALS =               59614
          7 INTEGRAL RECORDS WERE STORED ON DISK FILE  8.
  ...... END OF TWO-ELECTRON INTEGRALS .....
 CPU     0: STEP CPU TIME=     0.01 TOTAL CPU TIME=        0.2 (    0.0 MIN)
 TOTAL WALL CLOCK TIME=        0.2 SECONDS, CPU UTILIZATION IS 100.00%

          --------------------------
                 RHF SCF CALCULATION
          --------------------------
     DENSITY MATRIX CONV=  1.00E-05

 ITER EX DEM     TOTAL ENERGY        E CHANGE  DENSITY CHANGE     ORB. GRAD
          ---------------START SECOND ORDER SCF---------------
   1  0  0     -153.0114614912  -153.0114614912   0.000143813   0.000095709
   2  1  0     -153.0114616231    -0.0000001319   0.000093344   0.000041964
   3  2  0     -153.0114616492    -0.0000000261   0.000006259   0.000003985
   4  3  0     -153.0114616495    -0.0000000002   0.000003583   0.000001282
   5  4  0     -153.0114616495     0.0000000000   0.000000949   0.000000594

          -----------------
          DENSITY CONVERGED
          -----------------
     TIME TO FORM FOCK OPERATORS=       0.0 SECONDS (       0.0 SEC/ITER)
     TIME TO SOLVE SCF EQUATIONS=       0.0 SECONDS (       0.0 SEC/ITER)

 FINAL RHF ENERGY IS     -153.0114616495 AFTER   5 ITERATIONS
 ...... END OF RHF CALCULATION ......
 CPU     0: STEP CPU TIME=     0.00 TOTAL CPU TIME=        0.2 (    0.0 MIN)
 TOTAL WALL CLOCK TIME=        0.2 SECONDS, CPU UTILIZATION IS 100.00%
 ..... END OF 1-ELECTRON GRADIENT ......
 CPU     0: STEP CPU TIME=     0.01 TOTAL CPU TIME=        0.2 (    0.0 MIN)
 TOTAL WALL CLOCK TIME=        0.2 SECONDS, CPU UTILIZATION IS 100.00%
 ...... END OF 2-ELECTRON GRADIENT ......
 CPU     0: STEP CPU TIME=     0.01 TOTAL CPU TIME=        0.2 (    0.0 MIN)
 TOTAL WALL CLOCK TIME=        0.2 SECONDS, CPU UTILIZATION IS 100.00%

 UNITS ARE HARTREE/BOHR    E'X               E'Y               E'Z 
    1 C               -0.000031300      -0.000237338       0.000282527
    2 C                0.000115485       0.000133215      -0.000292313
    3 C               -0.000116616      -0.000134312      -0.000291369
    4 C                0.000032383       0.000238390       0.000281527
    5 H                0.000014902      -0.000001551       0.000012219
    6 H               -0.000032631      -0.000069791       0.000072597
    7 H                0.000044741       0.000067068      -0.000075048
    8 H               -0.000045019      -0.000067337      -0.000074621
    9 H               -0.000014848       0.000001605       0.000012272
   10 H                0.000032903       0.000070051       0.000072208

 ANGLE TO PREVIOUS OPTIMIZATION POINT IS   1.173
 LINEAR INTERPOLATION GIVES ANGLE          1.178

 CURRENT OPTIMIZATION POINT :
 ENERGY                                 =  -153.0114616 HARTREE
 MASS WEIGHTED TANGENT GRADIENT NORM    =     0.0000146 HARTREE/BOHR-SQRT(AMU)
 NEXT GEOMETRY STEP HAS PREDICTED ANGLE =         0.046 DEGREES
 AND CARTESIAN RMS DISPLACEMENT         =     0.0000819 BOHR

 *******************************************
 ***** END OF CONSTRAINED OPTIMIZATION *****
 *******************************************

 ANGLE BETWEEN GRADIENTS AT CURRENT AND PREVIOUS IRC POINT =   1.895
 ENERGY WAS LOWERED BY      0.0000026447 HARTREE DURING OPTIMIZATION

 ***** NEXT POINT ON IRC FOUND *****
 STEP DISTANCE IS   0.29996 SQRT(AMU)-BOHR)

1         POINT   1 ON THE REACTION PATH
          ******************************
          AT PATH DISTANCE STOTAL =   0.29996     SQRT(AMU)-BOHR
          TOTAL ENERGY            =  -153.0114616 HARTREE
            3 CONSTRAINED OPTIMIZATION STEPS WERE PERFORMED
  
 COORDINATES OF ALL ATOMS ARE (ANGS)
   ATOM   CHARGE       X              Y              Z
 ------------------------------------------------------------
 C           6.0   0.2797809636  -1.3748136942  -0.3066306305
 C           6.0   0.1825872610  -0.3049867306   0.4422503285
 C           6.0  -0.9977330196   0.6346363838   0.4427062353
 C           6.0  -1.0977343585   1.7016641500  -0.3097899564
 H           1.0   1.1439588079  -2.0237965996  -0.2653343945
 H           1.0  -0.4949265761  -1.6644598151  -1.0037957386
 H           1.0   0.9824717165  -0.0554328606   1.1340571254
 H           1.0  -1.7950220854   0.3876699505   1.1384264625
 H           1.0  -1.9617557015   2.3508032174  -0.2676814850
 H           1.0  -0.3256421157   1.9887025468  -1.0109235849
  

          INTERNUCLEAR DISTANCES (ANGS.)
          ------------------------------

                1 C          2 C          3 C          4 C          5 H     

   1 C       0.0000000    1.3095034 *  2.4962847 *  3.3707973    1.0815209 *
   2 C       1.3095034 *  0.0000000    1.5086576 *  2.4962844 *  2.0926583 *
   3 C       2.4962847 *  1.5086576 *  0.0000000    1.3095034 *  3.4864640  
   4 C       3.3707973    2.4962844 *  1.3095034 *  0.0000000    4.3481286  
   5 H       1.0815209 *  2.0926583 *  3.4864640    4.3481286    0.0000000  
   6 H       1.0817143 *  2.0971984 *  2.7624311 *  3.4893856    1.8331376 *
   7 H       2.0760832 *  1.0865951 *  2.2080245 *  3.0821002    2.4205021 *
   8 H       3.0821010    2.2080247 *  1.0865951 *  2.0760833 *  4.0525701  
   9 H       4.3481289    3.4864638    2.0926584 *  1.0815209 *  5.3649410  
  10 H       3.4893849    2.7624305 *  2.0971984 *  1.0817143 *  4.3377159  

                6 H          7 H          8 H          9 H         10 H     

   1 C       1.0817143 *  2.0760832 *  3.0821010    4.3481289    3.4893849  
   2 C       2.0971984 *  1.0865951 *  2.2080247 *  3.4864638    2.7624305 *
   3 C       2.7624311 *  2.2080245 *  1.0865951 *  2.0926584 *  2.0971984 *
   4 C       3.4893856    3.0821002    2.0760833 *  1.0815209 *  1.0817143 *
   5 H       1.8331376 *  2.4205021 *  4.0525701    5.3649410    4.3377159  
   6 H       0.0000000    3.0564830    3.2389197    4.3377170    3.6570895  
   7 H       3.0564830    0.0000000    2.8126200 *  4.0525693    3.2389186  
   8 H       3.2389197    2.8126200 *  0.0000000    2.4205024 *  3.0564830  
   9 H       4.3377170    4.0525693    2.4205024 *  0.0000000    1.8331376 *
  10 H       3.6570895    3.2389186    3.0564830    1.8331376 *  0.0000000  

  * ... LESS THAN  3.000


          CURRENT CARTESIAN GRADIENT
          ATOM               DE/DX          DE/DY          DE/DZ
          -----------------------------------------------------------
          C               -0.0000313162  -0.0002373244   0.0002827303
          C                0.0001155483   0.0001332148  -0.0002925508
          C               -0.0001166801  -0.0001343123  -0.0002916068
          C                0.0000323999   0.0002383765   0.0002817305
          H                0.0000149108  -0.0000015557   0.0000122255
          H               -0.0000326046  -0.0000697454   0.0000725922
          H                0.0000447215   0.0000670210  -0.0000750151
          H               -0.0000450000  -0.0000672902  -0.0000745876
          H               -0.0000148568   0.0000016101   0.0000122784
          H                0.0000328771   0.0000700055   0.0000722033
  
 CONVERGED ORBITALS AT IRC POINT                        1

                      1          2          3          4          5
                  -11.0319   -11.0317   -11.0167   -11.0167    -1.0325
                     A          A          A          A          A   
    1  C  1  S    0.024392  -0.022567   0.701421  -0.701010  -0.108320
    2  C  1  S   -0.005010   0.004854   0.026008  -0.025971   0.277775
    3  C  1  X    0.000289  -0.000211  -0.000093   0.000080  -0.011433
    4  C  1  Y   -0.002586   0.002706   0.001116  -0.001084   0.073793
    5  C  1  Z   -0.001777   0.001929   0.000767  -0.000781   0.047469
    6  C  2  S    0.700861  -0.701588  -0.022200   0.024052  -0.147282
    7  C  2  S    0.029379  -0.021466  -0.006365   0.006910   0.382858
    8  C  2  X   -0.002163  -0.002423  -0.000382   0.000081  -0.035582
    9  C  2  Y    0.000974   0.002864   0.002776  -0.002624  -0.019098
   10  C  2  Z   -0.000662   0.000477   0.001946  -0.001843  -0.038204
   11  C  3  S   -0.700856  -0.701593  -0.022187  -0.024064  -0.147282
   12  C  3  S   -0.029379  -0.021466  -0.006361  -0.006913   0.382858
   13  C  3  X   -0.002160   0.002425   0.000389   0.000089   0.035439
   14  C  3  Y    0.000977  -0.002862  -0.002767  -0.002619   0.018956
   15  C  3  Z    0.000666   0.000478   0.001954   0.001853  -0.038408
   16  C  4  S   -0.024392  -0.022567   0.701063   0.701368  -0.108320
   17  C  4  S    0.005010   0.004854   0.025995   0.025984   0.277775
   18  C  4  X    0.000296   0.000218   0.000096   0.000083   0.011611
   19  C  4  Y   -0.002579  -0.002698  -0.001112  -0.001082  -0.073615
   20  C  4  Z    0.001786   0.001939   0.000770   0.000785   0.047701
   21  H  5  S   -0.000021   0.000104  -0.004844   0.004849   0.057773
   22  H  6  S    0.000123   0.000303  -0.004843   0.004825   0.062500
   23  H  7  S   -0.004787   0.004947   0.000217  -0.000248   0.084057
   24  H  8  S    0.004787   0.004947   0.000217   0.000248   0.084057
   25  H  9  S    0.000021   0.000104  -0.004842  -0.004852   0.057773
   26  H 10  S   -0.000123   0.000303  -0.004841  -0.004827   0.062500

                      6          7          8          9         10
                   -0.9509    -0.7738    -0.6938    -0.6081    -0.5747
                     A          A          A          A          A   
    1  C  1  S   -0.144285  -0.116154  -0.064136   0.000942  -0.005628
    2  C  1  S    0.381482   0.340540   0.205349  -0.002222   0.035934
    3  C  1  X    0.000901   0.025877  -0.067302  -0.247858   0.243890
    4  C  1  Y    0.059181  -0.089067  -0.146307   0.087754  -0.249241
    5  C  1  Z    0.049148  -0.062464  -0.133823  -0.125161  -0.095039
    6  C  2  S   -0.102473   0.087146   0.096046  -0.002245   0.031877
    7  C  2  S    0.269640  -0.264697  -0.295830   0.008124  -0.089240
    8  C  2  X    0.052794   0.067756  -0.168074  -0.241299   0.136135
    9  C  2  Y   -0.128395  -0.156883  -0.019331   0.076844   0.199249
   10  C  2  Z   -0.055939  -0.105451  -0.078100  -0.167101   0.129520
   11  C  3  S    0.102473   0.087146  -0.096046  -0.002245  -0.031877
   12  C  3  S   -0.269640  -0.264697   0.295830   0.008124   0.089240
   13  C  3  X    0.053004  -0.068151  -0.167781   0.240672   0.135648
   14  C  3  Y   -0.128186   0.156489  -0.019039  -0.077468   0.198764
   15  C  3  Z    0.056220  -0.105781   0.078800  -0.167715  -0.130770
   16  C  4  S    0.144285  -0.116154   0.064136   0.000942   0.005628
   17  C  4  S   -0.381482   0.340540  -0.205349  -0.002222  -0.035934
   18  C  4  X    0.000717  -0.026111  -0.066800   0.247388   0.244245
   19  C  4  Y    0.058997   0.088834  -0.145806  -0.088222  -0.248887
   20  C  4  Z   -0.049371  -0.062699   0.134618  -0.125759   0.095055
   21  H  5  S    0.103314   0.169602   0.103463  -0.195530   0.291623
   22  H  6  S    0.095399   0.153867   0.198348   0.175694  -0.022815
   23  H  7  S    0.070823  -0.128568  -0.238416  -0.199018   0.138608
   24  H  8  S   -0.070823  -0.128568   0.238416  -0.199018  -0.138608
   25  H  9  S   -0.103314   0.169602  -0.103463  -0.195530  -0.291622
   26  H 10  S   -0.095399   0.153867  -0.198348   0.175694   0.022815

                     11         12         13         14         15
                   -0.5403    -0.4978    -0.4268    -0.3254    -0.3236
                     A          A          A          A          A   
    1  C  1  S    0.008383  -0.009607  -0.007851   0.014936   0.014950
    2  C  1  S   -0.002704   0.022121   0.018370  -0.056973  -0.056742
    3  C  1  X   -0.060126   0.252206  -0.245384   0.206591  -0.185851
    4  C  1  Y   -0.296586   0.042914   0.093178   0.180776  -0.306611
    5  C  1  Z   -0.199436   0.237982  -0.040913  -0.361996   0.280690
    6  C  2  S    0.008152   0.017732   0.020515   0.000574  -0.000535
    7  C  2  S   -0.005264  -0.074930  -0.086543   0.003623   0.009580
    8  C  2  X   -0.078354  -0.112025   0.329019   0.237677  -0.157787
    9  C  2  Y    0.255775  -0.174854  -0.197941   0.264832  -0.196081
   10  C  2  Z    0.256905  -0.117968   0.108591  -0.254563   0.359688
   11  C  3  S    0.008152  -0.017732   0.020515   0.000574   0.000535
   12  C  3  S   -0.005264   0.074930  -0.086543   0.003623  -0.009580
   13  C  3  X    0.079316  -0.111581  -0.328612  -0.238625  -0.159131
   14  C  3  Y   -0.254816  -0.174412   0.198347  -0.265777  -0.197421
   15  C  3  Z    0.257563   0.119037   0.109082  -0.252682  -0.358362
   16  C  4  S    0.008383   0.009607  -0.007851   0.014936  -0.014950
   17  C  4  S   -0.002704  -0.022121   0.018370  -0.056973   0.056741
   18  C  4  X    0.059378   0.251314   0.245230  -0.207942  -0.186898
   19  C  4  Y    0.295840   0.042024  -0.093332  -0.182122  -0.307655
   20  C  4  Z   -0.200764  -0.239082  -0.041483  -0.360543  -0.278849
   21  H  5  S    0.099777   0.191482  -0.272296   0.021201   0.026923
   22  H  6  S    0.210450  -0.311972   0.219714   0.025229   0.020099
   23  H  7  S    0.139168  -0.228868   0.245634   0.116975   0.110485
   24  H  8  S    0.139168   0.228868   0.245634   0.116976  -0.110485
   25  H  9  S    0.099777  -0.191482  -0.272296   0.021201  -0.026923
   26  H 10  S    0.210450   0.311972   0.219714   0.025229  -0.020099

                     16         17         18         19         20
                    0.3206     0.3250     0.5933     0.6524     0.6886
                     A          A          A          A          A   
    1  C  1  S    0.019093  -0.019042   0.012130  -0.016098  -0.057628
    2  C  1  S   -0.104578   0.105506  -0.064037   0.085939   0.345881
    3  C  1  X   -0.256360  -0.243542  -0.435539  -0.402922  -0.128971
    4  C  1  Y   -0.354213  -0.262062   0.023878   0.180873   0.099065
    5  C  1  Z    0.367319   0.446739  -0.195780  -0.192481   0.058709
    6  C  2  S    0.003211  -0.003580  -0.070749   0.076560   0.168243
    7  C  2  S   -0.011587   0.012198   0.411441  -0.490796  -1.051812
    8  C  2  X    0.222477   0.283151  -0.523394  -0.371811   0.008657
    9  C  2  Y    0.276024   0.336651   0.314998  -0.142350  -0.223085
   10  C  2  Z   -0.443701  -0.360029  -0.180060  -0.179756  -0.295440
   11  C  3  S    0.003211   0.003580   0.070750   0.076560  -0.168243
   12  C  3  S   -0.011587  -0.012198  -0.411441  -0.490797   1.051811
   13  C  3  X   -0.224133   0.284494  -0.522719   0.371135   0.009764
   14  C  3  Y   -0.277675   0.337989   0.315671   0.141676  -0.221982
   15  C  3  Z   -0.441833   0.357709   0.180841  -0.181675   0.296236
   16  C  4  S    0.019093   0.019042  -0.012130  -0.016098   0.057628
   17  C  4  S   -0.104578  -0.105506   0.064036   0.085939  -0.345880
   18  C  4  X    0.257731  -0.245210  -0.434803   0.402201  -0.129190
   19  C  4  Y    0.355578  -0.263725   0.024611  -0.181593   0.098846
   20  C  4  Z    0.365034  -0.444844   0.197318  -0.193311  -0.058596
   21  H  5  S    0.056969  -0.059436   0.457113   0.383939  -0.046050
   22  H  6  S   -0.001294   0.002583  -0.434568  -0.425627  -0.216566
   23  H  7  S    0.145069  -0.150961   0.215699   0.665535   0.744271
   24  H  8  S    0.145068   0.150961  -0.215698   0.665536  -0.744270
   25  H  9  S    0.056970   0.059436  -0.457113   0.383940   0.046050
   26  H 10  S   -0.001294  -0.002583   0.434568  -0.425628   0.216565

                     21         22         23         24         25
                    0.7057     0.7070     0.8905     0.9779     1.0404
                     A          A          A          A          A   
    1  C  1  S    0.143198  -0.134386  -0.014444   0.022519  -0.077614
    2  C  1  S   -0.926705   0.876298   0.092862  -0.173557   0.629336
    3  C  1  X   -0.030067   0.058009   0.616166   0.595708   0.117506
    4  C  1  Y    0.334914  -0.332165  -0.032508  -0.326000   0.619641
    5  C  1  Z    0.202923  -0.259946   0.327922   0.157484   0.490704
    6  C  2  S   -0.017472  -0.011516   0.067295  -0.047368   0.056133
    7  C  2  S    0.087599   0.103873  -0.472238   0.329336  -0.484604
    8  C  2  X   -0.021712  -0.035658  -0.468133  -0.637174  -0.315382
    9  C  2  Y   -0.145935   0.125549  -0.015562   0.099839   0.705775
   10  C  2  Z   -0.043604   0.176799  -0.223564  -0.429196   0.494823
   11  C  3  S   -0.017473   0.011516   0.067295   0.047368  -0.056136
   12  C  3  S    0.087600  -0.103873  -0.472238  -0.329335   0.484624
   13  C  3  X    0.021548  -0.036320   0.467294  -0.635565  -0.317233
   14  C  3  Y    0.145771   0.124890   0.014724   0.101445   0.703947
   15  C  3  Z   -0.044229  -0.177131  -0.225369   0.431201  -0.496280
   16  C  4  S    0.143198   0.134386  -0.014444  -0.022519   0.077616
   17  C  4  S   -0.926704  -0.876299   0.092862   0.173555  -0.629355
   18  C  4  X    0.030828   0.058983  -0.614935   0.595117   0.115662
   19  C  4  Y   -0.334154  -0.331194   0.033735  -0.326588   0.617824
   20  C  4  Z    0.204056   0.260965   0.330102  -0.158496  -0.493461
   21  H  5  S    0.647020  -0.633231  -0.461989  -0.433667  -0.035976
   22  H  6  S    0.630267  -0.619118   0.463537   0.391461   0.174730
   23  H  7  S   -0.001694  -0.130971   0.556694   0.395835  -0.011976
   24  H  8  S   -0.001695   0.130971   0.556694  -0.395835   0.011979
   25  H  9  S    0.647019   0.633232  -0.461989   0.433667   0.035973
   26  H 10  S    0.630267   0.619118   0.463537  -0.391462  -0.174731

                     26
                    1.0423
                     A   
    1  C  1  S   -0.083129
    2  C  1  S    0.663996
    3  C  1  X   -0.125603
    4  C  1  Y    0.662134
    5  C  1  Z    0.477721
    6  C  2  S    0.088165
    7  C  2  S   -0.700629
    8  C  2  X    0.073194
    9  C  2  Y    0.719020
   10  C  2  Z    0.415765
   11  C  3  S    0.088164
   12  C  3  S   -0.700616
   13  C  3  X   -0.071644
   14  C  3  Y   -0.717444
   15  C  3  Z    0.418701
   16  C  4  S   -0.083126
   17  C  4  S    0.663979
   18  C  4  X    0.127398
   19  C  4  Y   -0.660333
   20  C  4  Z    0.479700
   21  H  5  S    0.104326
   22  H  6  S    0.042795
   23  H  7  S   -0.094264
   24  H  8  S   -0.094265
   25  H  9  S    0.104328
   26  H 10  S    0.042789

 THE NUCLEAR REPULSION AT THE IRC POINT IS      104.3054778835

 * * * IRC RESTART INFORMATION * * *
 COORDINATES FOR $DATA AND ENTIRE $IRC GROUP FOLLOW

 COORDINATES OF SYMMETRY UNIQUE ATOMS (ANGS)
   ATOM   CHARGE       X              Y              Z
 ------------------------------------------------------------
 C           6.0   0.2797809636  -1.3748136942  -0.3066306305
 C           6.0   0.1825872610  -0.3049867306   0.4422503285
 C           6.0  -0.9977330196   0.6346363838   0.4427062353
 C           6.0  -1.0977343585   1.7016641500  -0.3097899564
 H           1.0   1.1439588079  -2.0237965996  -0.2653343945
 H           1.0  -0.4949265761  -1.6644598151  -1.0037957386
 H           1.0   0.9824717165  -0.0554328606   1.1340571254
 H           1.0  -1.7950220854   0.3876699505   1.1384264625
 H           1.0  -1.9617557015   2.3508032174  -0.2676814850
 H           1.0  -0.3256421157   1.9887025468  -1.0109235849
 $IRC   PACE=GS2        STRIDE= 0.30000   NPOINT=??
        STOTAL=  0.299959   NEXTPT=   2
        NPRT= 0   NPUN= 0   SADDLE=.FALSE.
        GA(  1)=-3.131622771E-05,-2.373243554E-04, 2.827302664E-04
        GA(  4)= 1.155482735E-04, 1.332148032E-04,-2.925507536E-04
        GA(  7)=-1.166800598E-04,-1.343123412E-04,-2.916067660E-04
        GA( 10)= 3.239994616E-05, 2.383765333E-04, 2.817304526E-04
        GA( 13)= 1.491082932E-05,-1.555660509E-06, 1.222550017E-05
        GA( 16)=-3.260459524E-05,-6.974543373E-05, 7.259222745E-05
        GA( 19)= 4.472151857E-05, 6.702098951E-05,-7.501512394E-05
        GA( 22)=-4.500003226E-05,-6.729017067E-05,-7.458755312E-05
        GA( 25)=-1.485677931E-05, 1.610134898E-06, 1.227840904E-05
        GA( 28)= 3.287712602E-05, 7.000549714E-05, 7.220334121E-05
 $END   
 A GS2 RESTART ALSO REQUIRES THE UPDATED $HESS GROUP FROM THE PUNCH FILE

 *********************************************
 ***** STARTING CONSTRAINED OPTIMIZATION *****
 *** TO FIND THE NEXT REACTION PATH POINT ****
 *********************************************
 CONSTRAINED OPTIMIZATION POINT   1 FOR PATH POINT   2
 COORDINATES OF SYMMETRY UNIQUE ATOMS (ANGS)
   ATOM   CHARGE       X              Y              Z
 ------------------------------------------------------------
 C           6.0   0.2811674857  -1.3643094815  -0.3191448822
 C           6.0   0.1774725994  -0.3108833964   0.4551991007
 C           6.0  -0.9925682632   0.6405816284   0.4556132227
 C           6.0  -1.0991688483   1.6911133657  -0.3222599538
 H           1.0   1.1361002624  -2.0229776588  -0.2717757560
 H           1.0  -0.4777412546  -1.6277015169  -1.0420555838
 H           1.0   0.9589005918  -0.0907564319   1.1735940077
 H           1.0  -1.7713041699   0.4231353941   1.1777379908
 H           1.0  -1.9539256353   2.3499555737  -0.2741507349
 H           1.0  -0.3429710746   1.9518071818  -1.0489784676
 ...... END OF ONE-ELECTRON INTEGRALS ......
 CPU     0: STEP CPU TIME=     0.00 TOTAL CPU TIME=        0.2 (    0.0 MIN)
 TOTAL WALL CLOCK TIME=        0.2 SECONDS, CPU UTILIZATION IS 100.00%
 TOTAL NUMBER OF NONZERO TWO-ELECTRON INTEGRALS =               59651
          7 INTEGRAL RECORDS WERE STORED ON DISK FILE  8.
  ...... END OF TWO-ELECTRON INTEGRALS .....
 CPU     0: STEP CPU TIME=     0.01 TOTAL CPU TIME=        0.2 (    0.0 MIN)
 TOTAL WALL CLOCK TIME=        0.2 SECONDS, CPU UTILIZATION IS 100.00%

          --------------------------
                 RHF SCF CALCULATION
          --------------------------
     DENSITY MATRIX CONV=  1.00E-05

 ITER EX DEM     TOTAL ENERGY        E CHANGE  DENSITY CHANGE     ORB. GRAD
          ---------------START SECOND ORDER SCF---------------
   1  0  0     -153.0100238276  -153.0100238276   0.022364323   0.009125233
   2  1  0     -153.0113182298    -0.0012944022   0.013188048   0.003328025
   3  2  0     -153.0115583585    -0.0002401287   0.001062486   0.000743325
   4  3  0     -153.0115622414    -0.0000038829   0.000806250   0.000329003
   5  4  0     -153.0115630118    -0.0000007704   0.000115511   0.000046141
   6  5  0     -153.0115630276    -0.0000000158   0.000026841   0.000020251
   7  6  0     -153.0115630318    -0.0000000042   0.000010230   0.000004404
   8  7  0     -153.0115630321    -0.0000000003   0.000000897   0.000000812
   9  8  0     -153.0115630321     0.0000000000   0.000000465   0.000000242

          -----------------
          DENSITY CONVERGED
          -----------------
     TIME TO FORM FOCK OPERATORS=       0.0 SECONDS (       0.0 SEC/ITER)
     TIME TO SOLVE SCF EQUATIONS=       0.0 SECONDS (       0.0 SEC/ITER)

 FINAL RHF ENERGY IS     -153.0115630321 AFTER   9 ITERATIONS
 ...... END OF RHF CALCULATION ......
 CPU     0: STEP CPU TIME=     0.00 TOTAL CPU TIME=        0.2 (    0.0 MIN)
 TOTAL WALL CLOCK TIME=        0.2 SECONDS, CPU UTILIZATION IS 100.00%
 ..... END OF 1-ELECTRON GRADIENT ......
 CPU     0: STEP CPU TIME=     0.01 TOTAL CPU TIME=        0.2 (    0.0 MIN)
 TOTAL WALL CLOCK TIME=        0.2 SECONDS, CPU UTILIZATION IS 100.00%
 ...... END OF 2-ELECTRON GRADIENT ......
 CPU     0: STEP CPU TIME=     0.01 TOTAL CPU TIME=        0.2 (    0.0 MIN)
 TOTAL WALL CLOCK TIME=        0.2 SECONDS, CPU UTILIZATION IS 100.00%

 UNITS ARE HARTREE/BOHR    E'X               E'Y               E'Z 
    1 C                0.000105225      -0.004002148      -0.002081427
    2 C                0.001963015       0.003621694       0.003047688
    3 C               -0.001951452      -0.003609821       0.003068743
    4 C               -0.000113021       0.003994388      -0.002096412
    5 H               -0.000916862       0.000723407       0.000003407
    6 H                0.000665619      -0.000036773       0.000657927
    7 H               -0.001683716      -0.000242410      -0.001627993
    8 H                0.001677641       0.000236162      -0.001635341
    9 H                0.000917175      -0.000723651       0.000002655
   10 H               -0.000663623       0.000039153       0.000660753

 CURRENT OPTIMIZATION POINT :
 ENERGY                                 =  -153.0115630 HARTREE
 MASS WEIGHTED TANGENT GRADIENT NORM    =     0.0048029 HARTREE/BOHR-SQRT(AMU)
 NEXT GEOMETRY STEP HAS PREDICTED ANGLE =         6.442 DEGREES
 AND CARTESIAN RMS DISPLACEMENT         =     0.0090702 BOHR

 CONSTRAINED OPTIMIZATION POINT   2 FOR PATH POINT   2
 COORDINATES OF SYMMETRY UNIQUE ATOMS (ANGS)
   ATOM   CHARGE       X              Y              Z
 ------------------------------------------------------------
 C           6.0   0.2814445350  -1.3638386261  -0.3183641093
 C           6.0   0.1770906827  -0.3115650186   0.4541763880
 C           6.0  -0.9921913550   0.6412590858   0.4545867778
 C           6.0  -1.0994421173   1.6906455081  -0.3214761316
 H           1.0   1.1367392302  -2.0240791336  -0.2703891205
 H           1.0  -0.4779422121  -1.6271066484  -1.0423014080
 H           1.0   0.9597588914  -0.0918354269   1.1753375065
 H           1.0  -1.7721553994   0.4242245768   1.1794840638
 H           1.0  -1.9545567180   2.3510653143  -0.2727647295
 H           1.0  -0.3427704483   1.9512077556  -1.0492252516
 ...... END OF ONE-ELECTRON INTEGRALS ......
 CPU     0: STEP CPU TIME=     0.00 TOTAL CPU TIME=        0.2 (    0.0 MIN)
 TOTAL WALL CLOCK TIME=        0.2 SECONDS, CPU UTILIZATION IS 100.00%
 TOTAL NUMBER OF NONZERO TWO-ELECTRON INTEGRALS =               59654
          7 INTEGRAL RECORDS WERE STORED ON DISK FILE  8.
  ...... END OF TWO-ELECTRON INTEGRALS .....
 CPU     0: STEP CPU TIME=     0.01 TOTAL CPU TIME=        0.2 (    0.0 MIN)
 TOTAL WALL CLOCK TIME=        0.2 SECONDS, CPU UTILIZATION IS 100.00%

          --------------------------
                 RHF SCF CALCULATION
          --------------------------
     DENSITY MATRIX CONV=  1.00E-05

 ITER EX DEM     TOTAL ENERGY        E CHANGE  DENSITY CHANGE     ORB. GRAD
          ---------------START SECOND ORDER SCF---------------
   1  0  0     -153.0115902829  -153.0115902829   0.000683736   0.000332658
   2  1  0     -153.0115920500    -0.0000017671   0.000343641   0.000136230
   3  2  0     -153.0115922847    -0.0000002348   0.000047864   0.000023483
   4  3  0     -153.0115922936    -0.0000000088   0.000017068   0.000011640
   5  4  0     -153.0115922952    -0.0000000017   0.000002163   0.000001083
   6  5  0     -153.0115922953     0.0000000000   0.000000805   0.000000292

          -----------------
          DENSITY CONVERGED
          -----------------
     TIME TO FORM FOCK OPERATORS=       0.0 SECONDS (       0.0 SEC/ITER)
     TIME TO SOLVE SCF EQUATIONS=       0.0 SECONDS (       0.0 SEC/ITER)

 FINAL RHF ENERGY IS     -153.0115922953 AFTER   6 ITERATIONS
 ...... END OF RHF CALCULATION ......
 CPU     0: STEP CPU TIME=     0.00 TOTAL CPU TIME=        0.2 (    0.0 MIN)
 TOTAL WALL CLOCK TIME=        0.2 SECONDS, CPU UTILIZATION IS 100.00%
 ..... END OF 1-ELECTRON GRADIENT ......
 CPU     0: STEP CPU TIME=     0.01 TOTAL CPU TIME=        0.2 (    0.0 MIN)
 TOTAL WALL CLOCK TIME=        0.2 SECONDS, CPU UTILIZATION IS 100.00%
 ...... END OF 2-ELECTRON GRADIENT ......
 CPU     0: STEP CPU TIME=     0.01 TOTAL CPU TIME=        0.3 (    0.0 MIN)
 TOTAL WALL CLOCK TIME=        0.3 SECONDS, CPU UTILIZATION IS 100.00%

 UNITS ARE HARTREE/BOHR    E'X               E'Y               E'Z 
    1 C               -0.000090574      -0.000606560       0.000499506
    2 C                0.000330288       0.000527977      -0.000607329
    3 C               -0.000332515      -0.000530171      -0.000604100
    4 C                0.000092409       0.000608421       0.000496925
    5 H                0.000027574      -0.000018530       0.000032236
    6 H               -0.000054651      -0.000149781       0.000137275
    7 H                0.000081027       0.000093324      -0.000061951
    8 H               -0.000081257      -0.000093581      -0.000061330
    9 H               -0.000027458       0.000018619       0.000032261
   10 H                0.000055158       0.000150281       0.000136505

 ANGLE TO PREVIOUS OPTIMIZATION POINT IS   6.442
 LINEAR INTERPOLATION GIVES ANGLE          6.366

 CURRENT OPTIMIZATION POINT :
 ENERGY                                 =  -153.0115923 HARTREE
 MASS WEIGHTED TANGENT GRADIENT NORM    =     0.0001933 HARTREE/BOHR-SQRT(AMU)
 NEXT GEOMETRY STEP HAS PREDICTED ANGLE =         3.134 DEGREES
 AND CARTESIAN RMS DISPLACEMENT         =     0.0066739 BOHR

 CONSTRAINED OPTIMIZATION POINT   3 FOR PATH POINT   2
 COORDINATES OF SYMMETRY UNIQUE ATOMS (ANGS)
   ATOM   CHARGE       X              Y              Z
 ------------------------------------------------------------
 C           6.0   0.2812431955  -1.3634852332  -0.3185212799
 C           6.0   0.1770628094  -0.3116207318   0.4544906132
 C           6.0  -0.9921624996   0.6413159133   0.4549007227
 C           6.0  -1.0992412368   1.6902915135  -0.3216327383
 H           1.0   1.1368958450  -2.0233276173  -0.2716844399
 H           1.0  -0.4787757382  -1.6268649147  -1.0417537114
 H           1.0   0.9606827192  -0.0910608024   1.1742092412
 H           1.0  -1.7730833575   0.4234464026   1.1783628127
 H           1.0  -1.9547175848   2.3503096024  -0.2740562706
 H           1.0  -0.3419347684   1.9509676619  -1.0486799934
 ...... END OF ONE-ELECTRON INTEGRALS ......
 CPU     0: STEP CPU TIME=     0.00 TOTAL CPU TIME=        0.3 (    0.0 MIN)
 TOTAL WALL CLOCK TIME=        0.3 SECONDS, CPU UTILIZATION IS 100.00%
 TOTAL NUMBER OF NONZERO TWO-ELECTRON INTEGRALS =               59657
          7 INTEGRAL RECORDS WERE STORED ON DISK FILE  8.
  ...... END OF TWO-ELECTRON INTEGRALS .....
 CPU     0: STEP CPU TIME=     0.01 TOTAL CPU TIME=        0.3 (    0.0 MIN)
 TOTAL WALL CLOCK TIME=        0.3 SECONDS, CPU UTILIZATION IS 100.00%

          --------------------------
                 RHF SCF CALCULATION
          --------------------------
     DENSITY MATRIX CONV=  1.00E-05

 ITER EX DEM     TOTAL ENERGY        E CHANGE  DENSITY CHANGE     ORB. GRAD
          ---------------START SECOND ORDER SCF---------------
   1  0  0     -153.0115916306  -153.0115916306   0.000393237   0.000261453
   2  1  0     -153.0115926376    -0.0000010070   0.000253370   0.000109256
   3  2  0     -153.0115928282    -0.0000001905   0.000017808   0.000011847
   4  3  0     -153.0115928301    -0.0000000019   0.000011339   0.000003919
   5  4  0     -153.0115928304    -0.0000000003   0.000002618   0.000001782
   6  5  0     -153.0115928304     0.0000000000   0.000000431   0.000000264

          -----------------
          DENSITY CONVERGED
          -----------------
     TIME TO FORM FOCK OPERATORS=       0.0 SECONDS (       0.0 SEC/ITER)
     TIME TO SOLVE SCF EQUATIONS=       0.0 SECONDS (       0.0 SEC/ITER)

 FINAL RHF ENERGY IS     -153.0115928304 AFTER   6 ITERATIONS
 ...... END OF RHF CALCULATION ......
 CPU     0: STEP CPU TIME=     0.00 TOTAL CPU TIME=        0.3 (    0.0 MIN)
 TOTAL WALL CLOCK TIME=        0.3 SECONDS, CPU UTILIZATION IS 100.00%
 ..... END OF 1-ELECTRON GRADIENT ......
 CPU     0: STEP CPU TIME=     0.01 TOTAL CPU TIME=        0.3 (    0.0 MIN)
 TOTAL WALL CLOCK TIME=        0.3 SECONDS, CPU UTILIZATION IS 100.00%
 ...... END OF 2-ELECTRON GRADIENT ......
 CPU     0: STEP CPU TIME=     0.01 TOTAL CPU TIME=        0.3 (    0.0 MIN)
 TOTAL WALL CLOCK TIME=        0.3 SECONDS, CPU UTILIZATION IS 100.00%

 UNITS ARE HARTREE/BOHR    E'X               E'Y               E'Z 
    1 C               -0.000064624      -0.000495473       0.000518768
    2 C                0.000273446       0.000298918      -0.000501973
    3 C               -0.000275261      -0.000300783      -0.000499883
    4 C                0.000066547       0.000497400       0.000516679
    5 H                0.000025905      -0.000007508       0.000018255
    6 H               -0.000055260      -0.000141774       0.000136382
    7 H                0.000050572       0.000122814      -0.000171438
    8 H               -0.000051257      -0.000123465      -0.000170748
    9 H               -0.000025859       0.000007584       0.000018328
   10 H                0.000055790       0.000142287       0.000135630

 ANGLE TO PREVIOUS OPTIMIZATION POINT IS   3.134
 LINEAR INTERPOLATION GIVES ANGLE          3.073

 CURRENT OPTIMIZATION POINT :
 ENERGY                                 =  -153.0115928 HARTREE
 MASS WEIGHTED TANGENT GRADIENT NORM    =     0.0000525 HARTREE/BOHR-SQRT(AMU)
 NEXT GEOMETRY STEP HAS PREDICTED ANGLE =         0.112 DEGREES
 AND CARTESIAN RMS DISPLACEMENT         =     0.0002144 BOHR

 *******************************************
 ***** END OF CONSTRAINED OPTIMIZATION *****
 *******************************************

 ANGLE BETWEEN GRADIENTS AT CURRENT AND PREVIOUS IRC POINT =   5.927
 ENERGY WAS LOWERED BY      0.0000297983 HARTREE DURING OPTIMIZATION

 ***** NEXT POINT ON IRC FOUND *****
 STEP DISTANCE IS   0.29960 SQRT(AMU)-BOHR)

1         POINT   2 ON THE REACTION PATH
          ******************************
          AT PATH DISTANCE STOTAL =   0.59956     SQRT(AMU)-BOHR
          TOTAL ENERGY            =  -153.0115928 HARTREE
            3 CONSTRAINED OPTIMIZATION STEPS WERE PERFORMED
  
 COORDINATES OF ALL ATOMS ARE (ANGS)
   ATOM   CHARGE       X              Y              Z
 ------------------------------------------------------------
 C           6.0   0.2812431955  -1.3634852332  -0.3185212799
 C           6.0   0.1770628094  -0.3116207318   0.4544906132
 C           6.0  -0.9921624996   0.6413159133   0.4549007227
 C           6.0  -1.0992412368   1.6902915135  -0.3216327383
 H           1.0   1.1368958450  -2.0233276173  -0.2716844399
 H           1.0  -0.4787757382  -1.6268649147  -1.0417537114
 H           1.0   0.9606827192  -0.0910608024   1.1742092412
 H           1.0  -1.7730833575   0.4234464026   1.1783628127
 H           1.0  -1.9547175848   2.3503096024  -0.2740562706
 H           1.0  -0.3419347684   1.9509676619  -1.0486799934
  

          INTERNUCLEAR DISTANCES (ANGS.)
          ------------------------------

                1 C          2 C          3 C          4 C          5 H     

   1 C       0.0000000    1.3095113 *  2.4977933 *  3.3513131    1.0815392 *
   2 C       1.3095113 *  0.0000000    1.5083687 *  2.4977934 *  2.0924985 *
   3 C       2.4977933 *  1.5083687 *  0.0000000    1.3095113 *  3.4872827  
   4 C       3.3513131    2.4977934 *  1.3095113 *  0.0000000    4.3351783  
   5 H       1.0815392 *  2.0924985 *  3.4872827    4.3351783    0.0000000  
   6 H       1.0816944 *  2.0973170 *  2.7655352 *  3.4506635    1.8331896 *
   7 H       2.0758002 *  1.0866010 *  2.2062151 *  3.1070961    2.4197757 *
   8 H       3.1070958    2.2062150 *  1.0866011 *  2.0758002 *  4.0690686  
   9 H       4.3351782    3.4872828    2.0924985 *  1.0815393 *  5.3560043  
  10 H       3.4506638    2.7655355 *  2.0973170 *  1.0816944 *  4.3111118  

                6 H          7 H          8 H          9 H         10 H     

   1 C       1.0816944 *  2.0758002 *  3.1070958    4.3351782    3.4506638  
   2 C       2.0973170 *  1.0866010 *  2.2062150 *  3.4872828    2.7655355 *
   3 C       2.7655352 *  2.2062151 *  1.0866011 *  2.0924985 *  2.0973170 *
   4 C       3.4506635    3.1070961    2.0758002 *  1.0815393 *  1.0816944 *
   5 H       1.8331896 *  2.4197757 *  4.0690686    5.3560043    4.3111118  
   6 H       0.0000000    3.0563421    3.2875410    4.3111113    3.5804552  
   7 H       3.0563421    0.0000000    2.7817642 *  4.0690689    3.2875415  
   8 H       3.2875410    2.7817642 *  0.0000000    2.4197756 *  3.0563421  
   9 H       4.3111113    4.0690689    2.4197756 *  0.0000000    1.8331897 *
  10 H       3.5804552    3.2875415    3.0563421    1.8331897 *  0.0000000  

  * ... LESS THAN  3.000


          CURRENT CARTESIAN GRADIENT
          ATOM               DE/DX          DE/DY          DE/DZ
          -----------------------------------------------------------
          C               -0.0000650846  -0.0004984272   0.0005177938
          C                0.0002749335   0.0003041029  -0.0005031798
          C               -0.0002767529  -0.0003059705  -0.0005010640
          C                0.0000670041   0.0005003501   0.0005156928
          H                0.0000257184  -0.0000075505   0.0000185207
          H               -0.0000550809  -0.0001419042   0.0001365198
          H                0.0000507562   0.0001221606  -0.0001696656
          H               -0.0000514338  -0.0001228053  -0.0001689791
          H               -0.0000256716   0.0000076272   0.0000185930
          H                0.0000556114   0.0001424167   0.0001357685

 THE NUCLEAR REPULSION AT THE IRC POINT IS      104.3404654018

 * * * IRC RESTART INFORMATION * * *
 COORDINATES FOR $DATA AND ENTIRE $IRC GROUP FOLLOW

 COORDINATES OF SYMMETRY UNIQUE ATOMS (ANGS)
   ATOM   CHARGE       X              Y              Z
 ------------------------------------------------------------
 C           6.0   0.2812431955  -1.3634852332  -0.3185212799
 C           6.0   0.1770628094  -0.3116207318   0.4544906132
 C           6.0  -0.9921624996   0.6413159133   0.4549007227
 C           6.0  -1.0992412368   1.6902915135  -0.3216327383
 H           1.0   1.1368958450  -2.0233276173  -0.2716844399
 H           1.0  -0.4787757382  -1.6268649147  -1.0417537114
 H           1.0   0.9606827192  -0.0910608024   1.1742092412
 H           1.0  -1.7730833575   0.4234464026   1.1783628127
 H           1.0  -1.9547175848   2.3503096024  -0.2740562706
 H           1.0  -0.3419347684   1.9509676619  -1.0486799934
 $IRC   PACE=GS2        STRIDE= 0.30000   NPOINT=??
        STOTAL=  0.599558   NEXTPT=   3
        NPRT= 0   NPUN= 0   SADDLE=.FALSE.
        GA(  1)=-6.508460516E-05,-4.984271843E-04, 5.177937643E-04
        GA(  4)= 2.749334539E-04, 3.041028542E-04,-5.031797738E-04
        GA(  7)=-2.767528603E-04,-3.059704684E-04,-5.010640379E-04
        GA( 10)= 6.700412204E-05, 5.003501142E-04, 5.156927514E-04
        GA( 13)= 2.571843257E-05,-7.550501202E-06, 1.852068240E-05
        GA( 16)=-5.508086196E-05,-1.419041588E-04, 1.365198346E-04
        GA( 19)= 5.075622114E-05, 1.221606498E-04,-1.696655749E-04
        GA( 22)=-5.143376614E-05,-1.228052659E-04,-1.689790931E-04
        GA( 25)=-2.567158347E-05, 7.627229018E-06, 1.859296871E-05
        GA( 28)= 5.561144638E-05, 1.424167323E-04, 1.357684780E-04
 $END   
 A GS2 RESTART ALSO REQUIRES THE UPDATED $HESS GROUP FROM THE PUNCH FILE

 *********************************************
 ***** STARTING CONSTRAINED OPTIMIZATION *****
 *** TO FIND THE NEXT REACTION PATH POINT ****
 *********************************************
 CONSTRAINED OPTIMIZATION POINT   1 FOR PATH POINT   3
 COORDINATES OF SYMMETRY UNIQUE ATOMS (ANGS)
   ATOM   CHARGE       X              Y              Z
 ------------------------------------------------------------
 C           6.0   0.2827371013  -1.3520812815  -0.3303727080
 C           6.0   0.1707691466  -0.3185815948   0.4660044707
 C           6.0  -0.9858272015   0.6483195125   0.4663661490
 C           6.0  -1.1007790797   1.6788435496  -0.3334360777
 H           1.0   1.1298819654  -2.0212838343  -0.2767081293
 H           1.0  -0.4637447222  -1.5881875746  -1.0789788133
 H           1.0   0.9468285676  -0.1243759462   1.2204805588
 H           1.0  -1.7590444328   0.4569373313   1.2244468618
 H           1.0  -1.9477163950   2.3482449838  -0.2790997384
 H           1.0  -0.3571104603   1.9121505665  -1.0857002324
 ...... END OF ONE-ELECTRON INTEGRALS ......
 CPU     0: STEP CPU TIME=     0.00 TOTAL CPU TIME=        0.3 (    0.0 MIN)
 TOTAL WALL CLOCK TIME=        0.3 SECONDS, CPU UTILIZATION IS 100.00%
 TOTAL NUMBER OF NONZERO TWO-ELECTRON INTEGRALS =               59678
          7 INTEGRAL RECORDS WERE STORED ON DISK FILE  8.
  ...... END OF TWO-ELECTRON INTEGRALS .....
 CPU     0: STEP CPU TIME=     0.01 TOTAL CPU TIME=        0.3 (    0.0 MIN)
 TOTAL WALL CLOCK TIME=        0.3 SECONDS, CPU UTILIZATION IS 100.00%

          --------------------------
                 RHF SCF CALCULATION
          --------------------------
     DENSITY MATRIX CONV=  1.00E-05

 ITER EX DEM     TOTAL ENERGY        E CHANGE  DENSITY CHANGE     ORB. GRAD
          ---------------START SECOND ORDER SCF---------------
   1  0  0     -153.0100025031  -153.0100025031   0.021697408   0.009074578
   2  1  0     -153.0112744013    -0.0012718982   0.012966104   0.003226974
   3  2  0     -153.0115098057    -0.0002354045   0.001663539   0.000796414
   4  3  0     -153.0115141612    -0.0000043555   0.000979284   0.000385242
   5  4  0     -153.0115151783    -0.0000010171   0.000067964   0.000032836
   6  5  0     -153.0115152023    -0.0000000239   0.000030416   0.000017740
   7  6  0     -153.0115152064    -0.0000000041   0.000006495   0.000002274
   8  7  0     -153.0115152065    -0.0000000001   0.000001345   0.000000742

          -----------------
          DENSITY CONVERGED
          -----------------
     TIME TO FORM FOCK OPERATORS=       0.0 SECONDS (       0.0 SEC/ITER)
     TIME TO SOLVE SCF EQUATIONS=       0.0 SECONDS (       0.0 SEC/ITER)

 FINAL RHF ENERGY IS     -153.0115152065 AFTER   8 ITERATIONS
 ...... END OF RHF CALCULATION ......
 CPU     0: STEP CPU TIME=     0.00 TOTAL CPU TIME=        0.3 (    0.0 MIN)
 TOTAL WALL CLOCK TIME=        0.3 SECONDS, CPU UTILIZATION IS 100.00%
 ..... END OF 1-ELECTRON GRADIENT ......
 CPU     0: STEP CPU TIME=     0.01 TOTAL CPU TIME=        0.3 (    0.0 MIN)
 TOTAL WALL CLOCK TIME=        0.3 SECONDS, CPU UTILIZATION IS 100.00%
 ...... END OF 2-ELECTRON GRADIENT ......
 CPU     0: STEP CPU TIME=     0.01 TOTAL CPU TIME=        0.3 (    0.0 MIN)
 TOTAL WALL CLOCK TIME=        0.3 SECONDS, CPU UTILIZATION IS 100.00%

 UNITS ARE HARTREE/BOHR    E'X               E'Y               E'Z 
    1 C                0.001100224      -0.000961367       0.001295917
    2 C               -0.007469339      -0.001728695      -0.008435975
    3 C                0.007426983       0.001693433      -0.008458800
    4 C               -0.001095049       0.000971644       0.001291529
    5 H               -0.000234152       0.000573919       0.000365734
    6 H               -0.001258723      -0.000301159      -0.000760930
    7 H                0.008098653       0.002277959       0.007535084
    8 H               -0.008059621      -0.002247214       0.007563283
    9 H                0.000239989      -0.000575774       0.000366413
   10 H                0.001251036       0.000297254      -0.000762253

 CURRENT OPTIMIZATION POINT :
 ENERGY                                 =  -153.0115152 HARTREE
 MASS WEIGHTED TANGENT GRADIENT NORM    =     0.0167052 HARTREE/BOHR-SQRT(AMU)
 NEXT GEOMETRY STEP HAS PREDICTED ANGLE =        17.351 DEGREES
 AND CARTESIAN RMS DISPLACEMENT         =     0.0393240 BOHR

 ......ENERGY IS GOING UP......

 CONSTRAINED OPTIMIZATION POINT   2 FOR PATH POINT   3
 COORDINATES OF SYMMETRY UNIQUE ATOMS (ANGS)
   ATOM   CHARGE       X              Y              Z
 ------------------------------------------------------------
 C           6.0   0.2817477119  -1.3506176386  -0.3305153873
 C           6.0   0.1715362546  -0.3179082355   0.4674321002
 C           6.0  -0.9865948196   0.6476504009   0.4677996072
 C           6.0  -1.0997852730   1.6773790699  -0.3335754770
 H           1.0   1.1289091727  -2.0213603659  -0.2820885392
 H           1.0  -0.4651010060  -1.5863161493  -1.0767571199
 H           1.0   0.9426247274  -0.1223722065   1.2082775193
 H           1.0  -1.7548954795   0.4549053421   1.2122682412
 H           1.0  -1.9467517864   2.3483204264  -0.2844743559
 H           1.0  -0.3557376273   1.9102678666  -1.0834930582
 ...... END OF ONE-ELECTRON INTEGRALS ......
 CPU     0: STEP CPU TIME=     0.00 TOTAL CPU TIME=        0.3 (    0.0 MIN)
 TOTAL WALL CLOCK TIME=        0.3 SECONDS, CPU UTILIZATION IS 100.00%
 TOTAL NUMBER OF NONZERO TWO-ELECTRON INTEGRALS =               59686
          7 INTEGRAL RECORDS WERE STORED ON DISK FILE  8.
  ...... END OF TWO-ELECTRON INTEGRALS .....
 CPU     0: STEP CPU TIME=     0.01 TOTAL CPU TIME=        0.3 (    0.0 MIN)
 TOTAL WALL CLOCK TIME=        0.3 SECONDS, CPU UTILIZATION IS 100.00%

          --------------------------
                 RHF SCF CALCULATION
          --------------------------
     DENSITY MATRIX CONV=  1.00E-05

 ITER EX DEM     TOTAL ENERGY        E CHANGE  DENSITY CHANGE     ORB. GRAD
          ---------------START SECOND ORDER SCF---------------
   1  0  0     -153.0117712089  -153.0117712089   0.001781393   0.000944133
   2  1  0     -153.0117903643    -0.0000191554   0.001151434   0.000382909
   3  2  0     -153.0117930092    -0.0000026449   0.000237158   0.000165002
   4  3  0     -153.0117932673    -0.0000002581   0.000048529   0.000022029
   5  4  0     -153.0117932812    -0.0000000139   0.000019183   0.000008276
   6  5  0     -153.0117932823    -0.0000000011   0.000001606   0.000000950
   7  6  0     -153.0117932823     0.0000000000   0.000000869   0.000000318

          -----------------
          DENSITY CONVERGED
          -----------------
     TIME TO FORM FOCK OPERATORS=       0.0 SECONDS (       0.0 SEC/ITER)
     TIME TO SOLVE SCF EQUATIONS=       0.0 SECONDS (       0.0 SEC/ITER)

 FINAL RHF ENERGY IS     -153.0117932823 AFTER   7 ITERATIONS
 ...... END OF RHF CALCULATION ......
 CPU     0: STEP CPU TIME=     0.00 TOTAL CPU TIME=        0.3 (    0.0 MIN)
 TOTAL WALL CLOCK TIME=        0.3 SECONDS, CPU UTILIZATION IS 100.00%
 ..... END OF 1-ELECTRON GRADIENT ......
 CPU     0: STEP CPU TIME=     0.01 TOTAL CPU TIME=        0.3 (    0.0 MIN)
 TOTAL WALL CLOCK TIME=        0.3 SECONDS, CPU UTILIZATION IS 100.00%
 ...... END OF 2-ELECTRON GRADIENT ......
 CPU     0: STEP CPU TIME=     0.01 TOTAL CPU TIME=        0.4 (    0.0 MIN)
 TOTAL WALL CLOCK TIME=        0.4 SECONDS, CPU UTILIZATION IS 100.00%

 UNITS ARE HARTREE/BOHR    E'X               E'Y               E'Z 
    1 C               -0.000139760      -0.000769392       0.000428600
    2 C               -0.000196072       0.000239247      -0.000331634
    3 C                0.000195130      -0.000240812      -0.000334852
    4 C                0.000141307       0.000770407       0.000427863
    5 H                0.000040198      -0.000112553       0.000081717
    6 H               -0.000067423      -0.000099700       0.000019576
    7 H                0.000537537       0.000551425      -0.000198157
    8 H               -0.000539875      -0.000551929      -0.000191589
    9 H               -0.000040579       0.000113270       0.000081746
   10 H                0.000069537       0.000100037       0.000016730

 ANGLE TO PREVIOUS OPTIMIZATION POINT IS  17.351
 LINEAR INTERPOLATION GIVES ANGLE         17.279

 CURRENT OPTIMIZATION POINT :
 ENERGY                                 =  -153.0117933 HARTREE
 MASS WEIGHTED TANGENT GRADIENT NORM    =     0.0009466 HARTREE/BOHR-SQRT(AMU)
 NEXT GEOMETRY STEP HAS PREDICTED ANGLE =        11.704 DEGREES
 AND CARTESIAN RMS DISPLACEMENT         =     0.0253871 BOHR

 CONSTRAINED OPTIMIZATION POINT   3 FOR PATH POINT   3
 COORDINATES OF SYMMETRY UNIQUE ATOMS (ANGS)
   ATOM   CHARGE       X              Y              Z
[...]
    7 H               -0.000112923       0.000097609      -0.000144628
    8 H               -0.000466301       0.000444834       0.001154989
    9 H                0.000145750      -0.000755879       0.000064342
   10 H                0.000277438      -0.000415743      -0.000946603

 ANGLE TO PREVIOUS OPTIMIZATION POINT IS  38.873
 LINEAR INTERPOLATION GIVES ANGLE         36.239

 CURRENT OPTIMIZATION POINT :
 ENERGY                                 =  -153.0174199 HARTREE
 MASS WEIGHTED TANGENT GRADIENT NORM    =     0.0021765 HARTREE/BOHR-SQRT(AMU)
 NEXT GEOMETRY STEP HAS PREDICTED ANGLE =         6.201 DEGREES
 AND CARTESIAN RMS DISPLACEMENT         =     0.0137243 BOHR

 CONSTRAINED OPTIMIZATION POINT   4 FOR PATH POINT  20
 COORDINATES OF SYMMETRY UNIQUE ATOMS (ANGS)
   ATOM   CHARGE       X              Y              Z
 ------------------------------------------------------------
 C           6.0   0.3479495333  -1.1599111656  -0.4554785529
 C           6.0   0.0072009334  -0.4566897304   0.6003791812
 C           6.0  -0.8216492185   0.7872636245   0.5998964703
 C           6.0  -1.1664853554   1.4860227343  -0.4575178846
 H           1.0   0.9529317473  -2.0520319090  -0.3698285246
 H           1.0   0.0444722579  -0.8930210566  -1.4582367523
 H           1.0   0.3328866305  -0.7841771299   1.5814939552
 H           1.0  -1.1456781472   1.1171907017   1.5812001837
 H           1.0  -1.7718479480   2.3780920952  -0.3734951431
 H           1.0  -0.8650503223   1.2152267625  -1.4595578575
 ...... END OF ONE-ELECTRON INTEGRALS ......
 CPU     0: STEP CPU TIME=     0.00 TOTAL CPU TIME=        3.7 (    0.1 MIN)
 TOTAL WALL CLOCK TIME=        3.7 SECONDS, CPU UTILIZATION IS 100.00%
 TOTAL NUMBER OF NONZERO TWO-ELECTRON INTEGRALS =               60023
          7 INTEGRAL RECORDS WERE STORED ON DISK FILE  8.
  ...... END OF TWO-ELECTRON INTEGRALS .....
 CPU     0: STEP CPU TIME=     0.01 TOTAL CPU TIME=        3.7 (    0.1 MIN)
 TOTAL WALL CLOCK TIME=        3.7 SECONDS, CPU UTILIZATION IS 100.00%

          --------------------------
                 RHF SCF CALCULATION
          --------------------------
     DENSITY MATRIX CONV=  1.00E-05

 ITER EX DEM     TOTAL ENERGY        E CHANGE  DENSITY CHANGE     ORB. GRAD
          ---------------START SECOND ORDER SCF---------------
   1  0  0     -153.0174248335  -153.0174248335   0.000912148   0.000330862
   2  1  0     -153.0174265340    -0.0000017006   0.000428765   0.000098666
   3  2  0     -153.0174267329    -0.0000001988   0.000051882   0.000017754
   4  3  0     -153.0174267372    -0.0000000044   0.000018290   0.000008989
   5  4  0     -153.0174267384    -0.0000000011   0.000006354   0.000002384
   6  5  0     -153.0174267385    -0.0000000001   0.000001350   0.000000468

          -----------------
          DENSITY CONVERGED
          -----------------
     TIME TO FORM FOCK OPERATORS=       0.0 SECONDS (       0.0 SEC/ITER)
     TIME TO SOLVE SCF EQUATIONS=       0.0 SECONDS (       0.0 SEC/ITER)

 FINAL RHF ENERGY IS     -153.0174267385 AFTER   6 ITERATIONS
 ...... END OF RHF CALCULATION ......
 CPU     0: STEP CPU TIME=     0.00 TOTAL CPU TIME=        3.7 (    0.1 MIN)
 TOTAL WALL CLOCK TIME=        3.7 SECONDS, CPU UTILIZATION IS 100.00%
 ..... END OF 1-ELECTRON GRADIENT ......
 CPU     0: STEP CPU TIME=     0.01 TOTAL CPU TIME=        3.7 (    0.1 MIN)
 TOTAL WALL CLOCK TIME=        3.7 SECONDS, CPU UTILIZATION IS 100.00%
 ...... END OF 2-ELECTRON GRADIENT ......
 CPU     0: STEP CPU TIME=     0.01 TOTAL CPU TIME=        3.7 (    0.1 MIN)
 TOTAL WALL CLOCK TIME=        3.7 SECONDS, CPU UTILIZATION IS 100.00%

 UNITS ARE HARTREE/BOHR    E'X               E'Y               E'Z 
    1 C               -0.000067033      -0.000075330       0.000040951
    2 C                0.000140103       0.000078931      -0.000028243
    3 C                0.000112666       0.000002905      -0.000271768
    4 C                0.000038886      -0.000113429      -0.000185802
    5 H                0.000057169      -0.000003877       0.000028107
    6 H               -0.000067680      -0.000019315      -0.000101511
    7 H               -0.000073546       0.000006775      -0.000030395
    8 H               -0.000139811       0.000068238       0.000303533
    9 H               -0.000067527       0.000055696       0.000081428
   10 H                0.000066773      -0.000000594       0.000163700

 ANGLE TO PREVIOUS OPTIMIZATION POINT IS   6.201
 LINEAR INTERPOLATION GIVES ANGLE          6.191

 CURRENT OPTIMIZATION POINT :
 ENERGY                                 =  -153.0174267 HARTREE
 MASS WEIGHTED TANGENT GRADIENT NORM    =     0.0004373 HARTREE/BOHR-SQRT(AMU)
 NEXT GEOMETRY STEP HAS PREDICTED ANGLE =         1.755 DEGREES
 AND CARTESIAN RMS DISPLACEMENT         =     0.0038419 BOHR

 CONSTRAINED OPTIMIZATION POINT   5 FOR PATH POINT  20
 COORDINATES OF SYMMETRY UNIQUE ATOMS (ANGS)
   ATOM   CHARGE       X              Y              Z
 ------------------------------------------------------------
 C           6.0   0.3479519038  -1.1597495652  -0.4554612645
 C           6.0   0.0071694918  -0.4567931112   0.6005740701
 C           6.0  -0.8217800634   0.7870673311   0.5998022401
 C           6.0  -1.1663558369   1.4860592622  -0.4575273985
 H           1.0   0.9530290749  -2.0517850525  -0.3704262979
 H           1.0   0.0439737884  -0.8926560380  -1.4579231086
 H           1.0   0.3336118314  -0.7838885183   1.5815464597
 H           1.0  -1.1453096082   1.1173380984   1.5808161218
 H           1.0  -1.7711335330   2.3785245122  -0.3736857474
 H           1.0  -0.8660953965   1.2149555522  -1.4600426608
 ...... END OF ONE-ELECTRON INTEGRALS ......
 CPU     0: STEP CPU TIME=     0.00 TOTAL CPU TIME=        3.7 (    0.1 MIN)
 TOTAL WALL CLOCK TIME=        3.7 SECONDS, CPU UTILIZATION IS 100.00%
 TOTAL NUMBER OF NONZERO TWO-ELECTRON INTEGRALS =               60024
          7 INTEGRAL RECORDS WERE STORED ON DISK FILE  8.
  ...... END OF TWO-ELECTRON INTEGRALS .....
 CPU     0: STEP CPU TIME=     0.01 TOTAL CPU TIME=        3.7 (    0.1 MIN)
 TOTAL WALL CLOCK TIME=        3.7 SECONDS, CPU UTILIZATION IS 100.00%

          --------------------------
                 RHF SCF CALCULATION
          --------------------------
     DENSITY MATRIX CONV=  1.00E-05

 ITER EX DEM     TOTAL ENERGY        E CHANGE  DENSITY CHANGE     ORB. GRAD
          ---------------START SECOND ORDER SCF---------------
   1  0  0     -153.0174268384  -153.0174268384   0.000289852   0.000113407
   2  1  0     -153.0174271325    -0.0000002941   0.000184300   0.000054211
   3  2  0     -153.0174271848    -0.0000000523   0.000030116   0.000007972
   4  3  0     -153.0174271858    -0.0000000010   0.000009693   0.000002941
   5  4  0     -153.0174271860    -0.0000000002   0.000002015   0.000000501

          -----------------
          DENSITY CONVERGED
          -----------------
     TIME TO FORM FOCK OPERATORS=       0.0 SECONDS (       0.0 SEC/ITER)
     TIME TO SOLVE SCF EQUATIONS=       0.0 SECONDS (       0.0 SEC/ITER)

 FINAL RHF ENERGY IS     -153.0174271860 AFTER   5 ITERATIONS
 ...... END OF RHF CALCULATION ......
 CPU     0: STEP CPU TIME=     0.00 TOTAL CPU TIME=        3.7 (    0.1 MIN)
 TOTAL WALL CLOCK TIME=        3.7 SECONDS, CPU UTILIZATION IS 100.00%
 ..... END OF 1-ELECTRON GRADIENT ......
 CPU     0: STEP CPU TIME=     0.01 TOTAL CPU TIME=        3.7 (    0.1 MIN)
 TOTAL WALL CLOCK TIME=        3.7 SECONDS, CPU UTILIZATION IS 100.00%
 ...... END OF 2-ELECTRON GRADIENT ......
 CPU     0: STEP CPU TIME=     0.01 TOTAL CPU TIME=        3.7 (    0.1 MIN)
 TOTAL WALL CLOCK TIME=        3.7 SECONDS, CPU UTILIZATION IS 100.00%

 UNITS ARE HARTREE/BOHR    E'X               E'Y               E'Z 
    1 C               -0.000009509      -0.000085523      -0.000013544
    2 C                0.000090992       0.000091298       0.000096736
    3 C               -0.000025914      -0.000005673      -0.000114165
    4 C                0.000083331      -0.000037609       0.000091814
    5 H                0.000005196       0.000028672      -0.000005427
    6 H               -0.000045770      -0.000024180      -0.000024749
    7 H               -0.000024382       0.000016303      -0.000057544
    8 H               -0.000060283      -0.000018875       0.000044144
    9 H               -0.000039724       0.000054985       0.000009523
   10 H                0.000026063      -0.000019397      -0.000026788

 ANGLE TO PREVIOUS OPTIMIZATION POINT IS   1.755
 LINEAR INTERPOLATION GIVES ANGLE          1.918

 CURRENT OPTIMIZATION POINT :
 ENERGY                                 =  -153.0174272 HARTREE
 MASS WEIGHTED TANGENT GRADIENT NORM    =     0.0001388 HARTREE/BOHR-SQRT(AMU)
 NEXT GEOMETRY STEP HAS PREDICTED ANGLE =         0.351 DEGREES
 AND CARTESIAN RMS DISPLACEMENT         =     0.0008203 BOHR

 CONSTRAINED OPTIMIZATION POINT   6 FOR PATH POINT  20
 COORDINATES OF SYMMETRY UNIQUE ATOMS (ANGS)
   ATOM   CHARGE       X              Y              Z
 ------------------------------------------------------------
 C           6.0   0.3479384906  -1.1597067659  -0.4554495865
 C           6.0   0.0071692647  -0.4568213428   0.6005935503
 C           6.0  -0.8218143782   0.7870209435   0.5998107016
 C           6.0  -1.1663462784   1.4860483689  -0.4575594088
 H           1.0   0.9529234388  -2.0518497318  -0.3705168500
 H           1.0   0.0439882552  -0.8924560438  -1.4578637834
 H           1.0   0.3338594269  -0.7837819566   1.5815743313
 H           1.0  -1.1451144777   1.1174789008   1.5807955778
 H           1.0  -1.7710238599   2.3784966015  -0.3737280670
 H           1.0  -0.8660994460   1.2151093605  -1.4600670456
 ...... END OF ONE-ELECTRON INTEGRALS ......
 CPU     0: STEP CPU TIME=     0.00 TOTAL CPU TIME=        3.7 (    0.1 MIN)
 TOTAL WALL CLOCK TIME=        3.7 SECONDS, CPU UTILIZATION IS 100.00%
 TOTAL NUMBER OF NONZERO TWO-ELECTRON INTEGRALS =               60022
          7 INTEGRAL RECORDS WERE STORED ON DISK FILE  8.
  ...... END OF TWO-ELECTRON INTEGRALS .....
 CPU     0: STEP CPU TIME=     0.01 TOTAL CPU TIME=        3.8 (    0.1 MIN)
 TOTAL WALL CLOCK TIME=        3.8 SECONDS, CPU UTILIZATION IS 100.00%

          --------------------------
                 RHF SCF CALCULATION
          --------------------------
     DENSITY MATRIX CONV=  1.00E-05

 ITER EX DEM     TOTAL ENERGY        E CHANGE  DENSITY CHANGE     ORB. GRAD
          ---------------START SECOND ORDER SCF---------------
   1  0  0     -153.0174272191  -153.0174272191   0.000056742   0.000021735
   2  1  0     -153.0174272310    -0.0000000119   0.000026964   0.000007452
   3  2  0     -153.0174272325    -0.0000000015   0.000005098   0.000001495
   4  3  0     -153.0174272325     0.0000000000   0.000001414   0.000000757

          -----------------
          DENSITY CONVERGED
          -----------------
     TIME TO FORM FOCK OPERATORS=       0.0 SECONDS (       0.0 SEC/ITER)
     TIME TO SOLVE SCF EQUATIONS=       0.0 SECONDS (       0.0 SEC/ITER)

 FINAL RHF ENERGY IS     -153.0174272325 AFTER   4 ITERATIONS
 ...... END OF RHF CALCULATION ......
 CPU     0: STEP CPU TIME=     0.00 TOTAL CPU TIME=        3.8 (    0.1 MIN)
 TOTAL WALL CLOCK TIME=        3.8 SECONDS, CPU UTILIZATION IS 100.00%
 ..... END OF 1-ELECTRON GRADIENT ......
 CPU     0: STEP CPU TIME=     0.01 TOTAL CPU TIME=        3.8 (    0.1 MIN)
 TOTAL WALL CLOCK TIME=        3.8 SECONDS, CPU UTILIZATION IS 100.00%
 ...... END OF 2-ELECTRON GRADIENT ......
 CPU     0: STEP CPU TIME=     0.01 TOTAL CPU TIME=        3.8 (    0.1 MIN)
 TOTAL WALL CLOCK TIME=        3.8 SECONDS, CPU UTILIZATION IS 100.00%

 UNITS ARE HARTREE/BOHR    E'X               E'Y               E'Z 
    1 C               -0.000031623      -0.000029747       0.000021449
    2 C                0.000073767       0.000059203       0.000020284
    3 C               -0.000057648      -0.000050736      -0.000025809
    4 C                0.000053594       0.000016673       0.000009377
    5 H                0.000007876      -0.000003348      -0.000004566
    6 H               -0.000033360      -0.000012979      -0.000011838
    7 H                0.000009455       0.000018237      -0.000025971
    8 H               -0.000031841      -0.000014970       0.000014090
    9 H               -0.000002854       0.000000192      -0.000007390
   10 H                0.000012635       0.000017476       0.000010375

 STOPPING BECAUSE GRADIENT IS BELOW -OPTTOL-
 YOUR RUN IS PROBABLY VERY NEAR A PES MINIMUM.
 MAX GRADIENT= 0.000074 RMS GRADIENT= 0.000030


 *******************************************
 ***** END OF CONSTRAINED OPTIMIZATION *****
 *******************************************

 ANGLE BETWEEN GRADIENTS AT CURRENT AND PREVIOUS IRC POINT =  23.976
 ENERGY WAS LOWERED BY      0.0008724757 HARTREE DURING OPTIMIZATION

 ***** NEXT POINT ON IRC FOUND *****
 STEP DISTANCE IS   0.29346 SQRT(AMU)-BOHR)

1         POINT  20 ON THE REACTION PATH
          ******************************
          AT PATH DISTANCE STOTAL =   5.94521     SQRT(AMU)-BOHR
          TOTAL ENERGY            =  -153.0174272 HARTREE
            6 CONSTRAINED OPTIMIZATION STEPS WERE PERFORMED
  
 COORDINATES OF ALL ATOMS ARE (ANGS)
   ATOM   CHARGE       X              Y              Z
 ------------------------------------------------------------
 C           6.0   0.3479384906  -1.1597067659  -0.4554495865
 C           6.0   0.0071692647  -0.4568213428   0.6005935503
 C           6.0  -0.8218143782   0.7870209435   0.5998107016
 C           6.0  -1.1663462784   1.4860483689  -0.4575594088
 H           1.0   0.9529234388  -2.0518497318  -0.3705168500
 H           1.0   0.0439882552  -0.8924560438  -1.4578637834
 H           1.0   0.3338594269  -0.7837819566   1.5815743313
 H           1.0  -1.1451144777   1.1174789008   1.5807955778
 H           1.0  -1.7710238599   2.3784966015  -0.3737280670
 H           1.0  -0.8660994460   1.2151093605  -1.4600670456
  

          INTERNUCLEAR DISTANCES (ANGS.)
          ------------------------------

                1 C          2 C          3 C          4 C          5 H     

   1 C       0.0000000    1.3135443 *  2.5043252 *  3.0484558    1.0812675 *
   2 C       1.3135443 *  0.0000000    1.4947769 *  2.5043101 *  2.0932324 *
   3 C       2.5043252 *  1.4947769 *  0.0000000    1.3135346 *  3.4857448  
   4 C       3.0484558    2.5043101 *  1.3135346 *  0.0000000    4.1249974  
   5 H       1.0812675 *  2.0932324 *  3.4857448    4.1249974    0.0000000  
   6 H       1.0810379 *  2.1043716 *  2.7936144 *  2.8500529 *  1.8310326 *
   7 H       2.0714691 *  1.0844137 *  2.1833148 *  3.4001196    2.4087125 *
   8 H       3.4001582    2.1833404 *  1.0844615 *  2.0715176 *  4.2724732  
   9 H       4.1249925    3.4857282    2.0932203 *  1.0812615 *  5.2007565  
  10 H       2.8500695 *  2.7936128 *  2.1043567 *  1.0810077 *  3.8947382  

                6 H          7 H          8 H          9 H         10 H     

   1 C       1.0810379 *  2.0714691 *  3.4001582    4.1249925    2.8500695 *
   2 C       2.1043716 *  1.0844137 *  2.1833404 *  3.4857282    2.7936128 *
   3 C       2.7936144 *  2.1833148 *  1.0844615 *  2.0932203 *  2.1043567 *
   4 C       2.8500529 *  3.4001196    2.0715176 *  1.0812615 *  1.0810077 *
   5 H       1.8310326 *  2.4087125 *  4.2724732    5.2007565    3.8947382  
   6 H       0.0000000    3.0551627    3.8323954    3.8947080    2.2956691 *
   7 H       3.0551627    0.0000000    2.4087668 *  4.2724404    3.8323687  
   8 H       3.8323954    2.4087668 *  0.0000000    2.4087530 *  3.0551967  
   9 H       3.8947080    4.2724404    2.4087530 *  0.0000000    1.8309807 *
  10 H       2.2956691 *  3.8323687    3.0551967    1.8309807 *  0.0000000  

  * ... LESS THAN  3.000


          CURRENT CARTESIAN GRADIENT
          ATOM               DE/DX          DE/DY          DE/DZ
          -----------------------------------------------------------
          C               -0.0000316230  -0.0000297472   0.0000214487
          C                0.0000737667   0.0000592027   0.0000202835
          C               -0.0000576481  -0.0000507361  -0.0000258094
          C                0.0000535945   0.0000166725   0.0000093769
          H                0.0000078760  -0.0000033483  -0.0000045663
          H               -0.0000333605  -0.0000129790  -0.0000118382
          H                0.0000094548   0.0000182369  -0.0000259712
          H               -0.0000318413  -0.0000149696   0.0000140905
          H               -0.0000028541   0.0000001924  -0.0000073899
          H                0.0000126350   0.0000174756   0.0000103754

 THE NUCLEAR REPULSION AT THE IRC POINT IS      105.2832869633

 * * * IRC RESTART INFORMATION * * *
 COORDINATES FOR $DATA AND ENTIRE $IRC GROUP FOLLOW

 COORDINATES OF SYMMETRY UNIQUE ATOMS (ANGS)
   ATOM   CHARGE       X              Y              Z
 ------------------------------------------------------------
 C           6.0   0.3479384906  -1.1597067659  -0.4554495865
 C           6.0   0.0071692647  -0.4568213428   0.6005935503
 C           6.0  -0.8218143782   0.7870209435   0.5998107016
 C           6.0  -1.1663462784   1.4860483689  -0.4575594088
 H           1.0   0.9529234388  -2.0518497318  -0.3705168500
 H           1.0   0.0439882552  -0.8924560438  -1.4578637834
 H           1.0   0.3338594269  -0.7837819566   1.5815743313
 H           1.0  -1.1451144777   1.1174789008   1.5807955778
 H           1.0  -1.7710238599   2.3784966015  -0.3737280670
 H           1.0  -0.8660994460   1.2151093605  -1.4600670456
 $IRC   PACE=GS2        STRIDE= 0.30000   NPOINT=??
        STOTAL=  5.945212   NEXTPT=  21
        NPRT= 0   NPUN= 0   SADDLE=.FALSE.
        GA(  1)=-3.162297736E-05,-2.974715595E-05, 2.144873471E-05
        GA(  4)= 7.376668095E-05, 5.920270387E-05, 2.028352236E-05
        GA(  7)=-5.764809043E-05,-5.073612300E-05,-2.580940885E-05
        GA( 10)= 5.359448598E-05, 1.667253427E-05, 9.376889817E-06
        GA( 13)= 7.876033653E-06,-3.348252771E-06,-4.566344100E-06
        GA( 16)=-3.336047854E-05,-1.297899747E-05,-1.183821342E-05
        GA( 19)= 9.454788098E-06, 1.823686549E-05,-2.597115975E-05
        GA( 22)=-3.184133009E-05,-1.496962613E-05, 1.409047294E-05
        GA( 25)=-2.854131725E-06, 1.924254251E-07,-7.389942632E-06
        GA( 28)= 1.263501870E-05, 1.747562751E-05, 1.037544978E-05
 $END   
 A GS2 RESTART ALSO REQUIRES THE UPDATED $HESS GROUP FROM THE PUNCH FILE
 ......DONE WITH THIS PORTION OF THE IRC......
 CPU     0: STEP CPU TIME=     0.00 TOTAL CPU TIME=        3.8 (    0.1 MIN)
 TOTAL WALL CLOCK TIME=        3.8 SECONDS, CPU UTILIZATION IS 100.00%
                   580000  WORDS OF DYNAMIC MEMORY USED
 EXECUTION OF GAMESS TERMINATED NORMALLY Mon Nov 18 14:43:03 2019
 DDI: 263624 bytes (0.3 MB / 0 MWords) used by master data server.

 ----------------------------------------
 CPU timing information for all processes
 ========================================
 0: 2.184014 + 0.249601 = 2.433615
 1: 2.714417 + 0.187201 = 2.901618
 2: 3.198020 + 0.234001 = 3.432021
 3: 3.151220 + 0.280801 = 3.432021
 4: 2.386815 + 0.187201 = 2.574016
 5: 0.015600 + 0.015600 = 0.031200
 6: 0.000000 + 0.031200 = 0.031200
 7: 0.015600 + 0.015600 = 0.031200
 ----------------------------------------
           Disk usage (in bytes)       
 ========================================
 ----------------------------------------
            Local date and time          
 ========================================
18.11.2019 - 14:43:09.32                          
