          ******************************************************
          *         GAMESS VERSION =  1 MAY 2013 (R1)          *
          *             FROM IOWA STATE UNIVERSITY             *
          * M.W.SCHMIDT, K.K.BALDRIDGE, J.A.BOATZ, S.T.ELBERT, *
          *   M.S.GORDON, J.H.JENSEN, S.KOSEKI, N.MATSUNAGA,   *
          *          K.A.NGUYEN, S.J.SU, T.L.WINDUS,           *
          *       TOGETHER WITH M.DUPUIS, J.A.MONTGOMERY       *
          *         J.COMPUT.CHEM.  14, 1347-1363(1993)        *
          *************** 64 BIT WINDOWS VERSION ***************

  SINCE 1993, STUDENTS AND POSTDOCS WORKING AT IOWA STATE UNIVERSITY
  AND ALSO IN THEIR VARIOUS JOBS AFTER LEAVING ISU HAVE MADE IMPORTANT
  CONTRIBUTIONS TO THE CODE:
     IVANA ADAMOVIC, CHRISTINE AIKENS, YURI ALEXEEV, POOJA ARORA,
     ANDREY ASADCHEV, ROB BELL, PRADIPTA BANDYOPADHYAY, JONATHAN BENTZ,
     BRETT BODE, GALINA CHABAN, WEI CHEN, CHEOL HO CHOI, PAUL DAY,
     ALBERT DEFUSCO, TIM DUDLEY, DMITRI FEDOROV, GRAHAM FLETCHER,
     MARK FREITAG, KURT GLAESEMANN, DAN KEMP, GRANT MERRILL,
     NORIYUKI MINEZAWA, JONATHAN MULLIN, TAKESHI NAGATA,
     SEAN NEDD, HEATHER NETZLOFF, BOSILJKA NJEGIC, RYAN OLSON, MIKE PAK,
     JIM SHOEMAKER, LYUDMILA SLIPCHENKO, SAROM SOK, JIE SONG,
     TETSUYA TAKETSUGU, SIMON WEBB, SOOHAENG YOO, FEDERICO ZAHARIEV

  ADDITIONAL CODE HAS BEEN PROVIDED BY COLLABORATORS IN OTHER GROUPS:
     IOWA STATE UNIVERSITY:
          JOE IVANIC, LAIMUTIS BYTAUTAS, KLAUS RUEDENBERG
     UNIVERSITY OF TOKYO: KIMIHIKO HIRAO, TAKAHITO NAKAJIMA,
          TAKAO TSUNEDA, MUNEAKI KAMIYA, SUSUMU YANAGISAWA,
          KIYOSHI YAGI, MAHITO CHIBA, SEIKEN TOKURA, NAOAKI KAWAKAMI
     UNIVERSITY OF AARHUS: FRANK JENSEN
     UNIVERSITY OF IOWA: VISVALDAS KAIRYS, HUI LI
     NATIONAL INST. OF STANDARDS AND TECHNOLOGY: WALT STEVENS, DAVID GARMER
     UNIVERSITY OF PISA: BENEDETTA MENNUCCI, JACOPO TOMASI
     UNIVERSITY OF MEMPHIS: HENRY KURTZ, PRAKASHAN KORAMBATH
     UNIVERSITY OF ALBERTA: TOBY ZENG, MARIUSZ KLOBUKOWSKI
     UNIVERSITY OF NEW ENGLAND: MARK SPACKMAN
     MIE UNIVERSITY: HIROAKI UMEDA
     MICHIGAN STATE UNIVERSITY:
          KAROL KOWALSKI, MARTA WLOCH, JEFFREY GOUR, JESSE LUTZ,
          WEI LI, PIOTR PIECUCH
     UNIVERSITY OF SILESIA: MONIKA MUSIAL, STANISLAW KUCHARSKI
     FACULTES UNIVERSITAIRES NOTRE-DAME DE LA PAIX:
          OLIVIER QUINET, BENOIT CHAMPAGNE
     UNIVERSITY OF CALIFORNIA - SANTA BARBARA: BERNARD KIRTMAN
     INSTITUTE FOR MOLECULAR SCIENCE:
          KAZUYA ISHIMURA, MICHIO KATOUDA, AND SHIGERU NAGASE
     UNIVERSITY OF NOTRE DAME: DAN CHIPMAN
     KYUSHU UNIVERSITY:
          HARUYUKI NAKANO,
          FENG LONG GU, JACEK KORCHOWIEC, MARCIN MAKOWSKI, AND YURIKO AOKI,
          HIROTOSHI MORI AND EISAKU MIYOSHI
     PENNSYLVANIA STATE UNIVERSITY:
          TZVETELIN IORDANOV, CHET SWALINA, JONATHAN SKONE,
          SHARON HAMMES-SCHIFFER
     WASEDA UNIVERSITY:
          MASATO KOBAYASHI, TOMOKO AKAMA, TSUGUKI TOUMA,
          TAKESHI YOSHIKAWA, YASUHIRO IKABATA, HIROMI NAKAI
     NANJING UNIVERSITY: SHUHUA LI
     UNIVERSITY OF NEBRASKA:
          PEIFENG SU, DEJUN SI, NANDUN THELLAMUREGE, YALI WANG, HUI LI
     UNIVERSITY OF ZURICH:
          ROBERTO PEVERATI, KIM BALDRIDGE
     N. COPERNICUS UNIVERSITY AND JACKSON STATE UNIVERSITY:
          MARIA BARYSZ


 PARALLEL VERSION RUNNING ON     4 PROCESSORS IN     4 NODES.

 EXECUTION OF GAMESS BEGUN Fri Aug 23 14:50:56 2019

            ECHO OF THE FIRST FEW INPUT CARDS -
 INPUT CARD> $CONTRL  RUNTYP=hessian mplevl=2                                               
 INPUT CARD> ispher=+1                                                                      
 INPUT CARD>! numgrd=.t.                                                                    
 INPUT CARD> $END                                                                           
 INPUT CARD> $system TIMLIM=9000                                                            
 INPUT CARD> mwords=80 memddi=2 $end                                                        
 INPUT CARD>! $BASIS  GBASIS=N31 NGAUSS=6 ndfunc=1 $END                                     
 INPUT CARD> $basis gbasis=cct $end                                                         
 INPUT CARD> $statpt nstep=1000  opttol=1.d-5 projct=.f. hssend=.t. $end                    
 INPUT CARD> $force nvib=2  $end                                                            
 INPUT CARD> $scf dirscf=.t. $end                                                           
 INPUT CARD>                                                                                
 INPUT CARD> $DATA                                                                          
 INPUT CARD> C2H4                                                                           
 INPUT CARD> dnh 2                                                                          
 INPUT CARD>                                                                                
 INPUT CARD> CARBON      6.0   0.0000000000   0.0000000000   0.6660175477                   
 INPUT CARD> HYDROGEN    1.0   0.0000000000   0.9228154305   1.2279223329                   
 INPUT CARD> $END                                                                           
 INPUT CARD> $END                                                                           
 INPUT CARD>                                                                                
   80000000 WORDS OF MEMORY AVAILABLE

     BASIS OPTIONS
     -------------
     GBASIS=CCT          IGAUSS=       0      POLAR=NONE    
     NDFUNC=       0     NFFUNC=       0     DIFFSP=       F
     NPFUNC=       0      DIFFS=       F     BASNAM=        


     RUN TITLE
     ---------
  C2H4                                                                           

 THE POINT GROUP OF THE MOLECULE IS DNH     
 THE ORDER OF THE PRINCIPAL AXIS IS     2

 ATOM      ATOMIC                      COORDINATES (BOHR)
           CHARGE         X                   Y                   Z
 CARBON      6.0     0.0000000000        0.0000000000       -1.2585906682
 CARBON      6.0     0.0000000000        0.0000000000        1.2585906682
 HYDROGEN    1.0     0.0000000000       -1.7438683009        2.3204367434
 HYDROGEN    1.0     0.0000000000        1.7438683009       -2.3204367434
 HYDROGEN    1.0     0.0000000000       -1.7438683009       -2.3204367434
 HYDROGEN    1.0     0.0000000000        1.7438683009        2.3204367434

          INTERNUCLEAR DISTANCES (ANGS.)
          ------------------------------

                1 CARB       2 CARB       3 HYDR       4 HYDR       5 HYDR  

   1 CARB    0.0000000    1.3320351 *  2.1067977 *  1.0804283 *  1.0804283 *
   2 CARB    1.3320351 *  0.0000000    1.0804283 *  2.1067977 *  2.1067977 *
   3 HYDR    2.1067977 *  1.0804283 *  0.0000000    3.0720557    2.4558447 *
   4 HYDR    1.0804283 *  2.1067977 *  3.0720557    0.0000000    1.8456309 *
   5 HYDR    1.0804283 *  2.1067977 *  2.4558447 *  1.8456309 *  0.0000000  
   6 HYDR    2.1067977 *  1.0804283 *  1.8456309 *  2.4558447 *  3.0720557  

                6 HYDR  

   1 CARB    2.1067977 *
   2 CARB    1.0804283 *
   3 HYDR    1.8456309 *
   4 HYDR    2.4558447 *
   5 HYDR    3.0720557  
   6 HYDR    0.0000000  

  * ... LESS THAN  3.000


     ATOMIC BASIS SET
     ----------------
 THE CONTRACTED PRIMITIVE FUNCTIONS HAVE BEEN UNNORMALIZED
 THE CONTRACTED BASIS FUNCTIONS ARE NOW NORMALIZED TO UNITY

  SHELL TYPE  PRIMITIVE        EXPONENT          CONTRACTION COEFFICIENT(S)

 CARBON    

     11   S       1          8236.0000000    0.000542430189
     11   S       2          1235.0000000    0.004196427901
     11   S       3           280.8000000    0.021540914108
     11   S       4            79.2700000    0.083614949614
     11   S       5            25.5900000    0.239871618922
     11   S       6             8.9970000    0.443751820060
     11   S       7             3.3190000    0.353579696469
     11   S       8             0.3643000   -0.009176366076

     12   S       9          8236.0000000   -0.000196392234
     12   S      10          1235.0000000   -0.001525950274
     12   S      11           280.8000000   -0.007890449028
     12   S      12            79.2700000   -0.031514870532
     12   S      13            25.5900000   -0.096910008320
     12   S      14             8.9970000   -0.220541526288
     12   S      15             3.3190000   -0.296069112937
     12   S      16             0.3643000    1.040503432950

     13   S      17             0.9059000    1.000000000000

     14   S      18             0.1285000    1.000000000000

     15   P      19            18.7100000    0.039426387165
     15   P      20             4.1330000    0.244088984924
     15   P      21             1.2000000    0.815492008943

     16   P      22             0.3827000    1.000000000000

     17   P      23             0.1209000    1.000000000000

     18   D      24             1.0970000    1.000000000000

     19   D      25             0.3180000    1.000000000000

     20   F      26             0.7610000    1.000000000000

 HYDROGEN  

     39   S      27            33.8700000    0.025494863235
     39   S      28             5.0950000    0.190362765893
     39   S      29             1.1590000    0.852162022245

     40   S      30             0.3258000    1.000000000000

     41   S      31             0.1027000    1.000000000000

     42   P      32             1.4070000    1.000000000000

     43   P      33             0.3880000    1.000000000000

     44   D      34             1.0570000    1.000000000000

 TOTAL NUMBER OF BASIS SET SHELLS             =   44
 NUMBER OF CARTESIAN GAUSSIAN BASIS FUNCTIONS =  130
 NOTE: THIS RUN WILL RESTRICT THE MO VARIATION SPACE TO SPHERICAL HARMONICS.
 THE NUMBER OF ORBITALS KEPT IN THE VARIATIONAL SPACE WILL BE PRINTED LATER.
 NUMBER OF ELECTRONS                          =   16
 CHARGE OF MOLECULE                           =    0
 SPIN MULTIPLICITY                            =    1
 NUMBER OF OCCUPIED ORBITALS (ALPHA)          =    8
 NUMBER OF OCCUPIED ORBITALS (BETA )          =    8
 TOTAL NUMBER OF ATOMS                        =    6
 THE NUCLEAR REPULSION ENERGY IS       33.4336717265

     $NEO OPTIONS
     ------------
     NUNIQN=       0     BASNUC=DZSNB        NEOSCF=NONE    
     NEOCI =NONE         NUMULT=       2     NUCST =       1
     NAUXNB=       0     VNUCEX=       F     NUCOPT=       T
     NTAUXB=       0     NEOHSS=       F     HSSINI=READH   
     HSSUPD=POWELLUP     DIRNUC=       F     SYMNUC=       F
     QMTOLN= 0.0E+00     USRDEX=       F
     POSNEO=       F     POSPRP=       F
     NEONCI=       F     LOCORB=       0

     $CONTRL OPTIONS
     ---------------
 SCFTYP=RHF          RUNTYP=HESSIAN      EXETYP=RUN     
 MPLEVL=       2     CITYP =NONE         CCTYP =NONE         VBTYP =NONE    
 DFTTYP=NONE         TDDFT =NONE    
 MULT  =       1     ICHARG=       0     NZVAR =       0     COORD =UNIQUE  
 PP    =NONE         RELWFN=NONE         LOCAL =NONE         NUMGRD=       F
 ISPHER=       1     NOSYM =       0     MAXIT =      30     UNITS =ANGS    
 PLTORB=       F     MOLPLT=       F     AIMPAC=       F     FRIEND=        
 NPRINT=       7     IREST =       0     GEOM  =INPUT   
 NORMF =       0     NORMP =       0     ITOL  =      20     ICUT  =       9
 INTTYP=BEST         GRDTYP=BEST         QMTTOL= 1.0E-06

     $SYSTEM OPTIONS
     ---------------
  REPLICATED MEMORY=    80000000 WORDS (ON EVERY NODE).
 DISTRIBUTED MEMDDI=           2 MILLION WORDS IN AGGREGATE,
 MEMDDI DISTRIBUTED OVER   4 PROCESSORS IS      500000 WORDS/PROCESSOR.
 TOTAL MEMORY REQUESTED ON EACH PROCESSOR=    80500000 WORDS.
 TIMLIM=        9000.00 MINUTES, OR       6.3 DAYS.
 PARALL= T  BALTYP=  DLB     KDIAG=    0  COREFL= F
 MXSEQ2=     300 MXSEQ3=     150

          ----------------
          PROPERTIES INPUT
          ----------------

     MOMENTS            FIELD           POTENTIAL          DENSITY
 IEMOM =       1   IEFLD =       0   IEPOT =       0   IEDEN =       0
 WHERE =COMASS     WHERE =NUCLEI     WHERE =NUCLEI     WHERE =NUCLEI  
 OUTPUT=BOTH       OUTPUT=BOTH       OUTPUT=BOTH       OUTPUT=BOTH    
 IEMINT=       0   IEFINT=       0                     IEDINT=       0
                                                       MORB  =       0
          EXTRAPOLATION IN EFFECT
          SOSCF IN EFFECT
 ORBITAL PRINTING OPTION: NPREO=     1   130     2     1

     -------------------------------
     INTEGRAL TRANSFORMATION OPTIONS
     -------------------------------
     NWORD  =            0
     CUTOFF = 1.0E-09     MPTRAN =       0
     DIRTRF =       T     AOINTS =DUP     

          ----------------------
          INTEGRAL INPUT OPTIONS
          ----------------------
 NOPK  =       1 NORDER=       0 SCHWRZ=       T

          -----------------------
          MP2 CONTROL INFORMATION
          -----------------------
          NACORE =        2  NBCORE =        2
          LMOMP2 =        F  AOINTS = DUP     
          METHOD =        2  NWORD  =               0
          MP2PRP =        F  OSPT   = NONE    
          CUTOFF = 1.00E-09  CPHFBS = BASISAO 
          CODE   = DDI     

          NUMBER OF CORE -A-  ORBITALS =     2
          NUMBER OF CORE -B-  ORBITALS =     2
          NUMBER OF OCC. -A-  ORBITALS =     8
          NUMBER OF OCC. -B-  ORBITALS =     8
          NUMBER OF MOLECULAR ORBITALS =   130
          NUMBER OF   BASIS  FUNCTIONS =   130


     ------------------------------------------
     THE POINT GROUP IS DNH, NAXIS= 2, ORDER= 8
     ------------------------------------------

 -- VARIATIONAL SPACE WILL BE RESTRICTED TO PURE SPHERICAL HARMONICS ONLY --
 AFTER EXCLUDING CONTAMINANT COMBINATIONS FROM THE CARTESIAN GAUSSIAN BASIS
 SET, THE NUMBER OF SPHERICAL HARMONICS KEPT IN THE VARIATION SPACE IS  116

     DIMENSIONS OF THE SYMMETRY SUBSPACES ARE
 AG  =   23     AU  =    7     B3U =   11     B3G =   17     B1G =    7
 B1U =   23     B2U =   17     B2G =   11

 ..... DONE SETTING UP THE RUN .....
 CPU     0: STEP CPU TIME=     0.02 TOTAL CPU TIME=        0.0 (    0.0 MIN)
 TOTAL WALL CLOCK TIME=        0.0 SECONDS, CPU UTILIZATION IS 100.00%

     ---------------------------------
     HESSIAN MATRIX CONTROL PARAMETERS
     ---------------------------------
     METHOD=SEMINUM    NVIB  =       2   VIBSIZ= 0.01000
     RDHESS=       F   PURIFY=       F   PRTIFC=       F
     VIBANL=       T   DECOMP=       F   PROJCT=       F
     SCLFAC= 1.00000   PRTSCN=       F   NPRT  =       0
     PULCOR=       F   NPUN  =       0   REDOVB=       T
     THERMOCHEMISTRY WILL BE PRINTED FOR    1 TEMPERATURES:
      298.15000
1   ATOM  0
                                        -------------------
   COORD  0                             NUCLEAR COORDINATES
                                        -------------------
     VIB  0

                       ATOM             X              Y              Z

                 1  CARBON           0.000000       0.000000      -1.258591
                 2  CARBON           0.000000       0.000000       1.258591
                 3  HYDROGEN         0.000000      -1.743868       2.320437
                 4  HYDROGEN         0.000000       1.743868      -2.320437
                 5  HYDROGEN         0.000000      -1.743868      -2.320437
                 6  HYDROGEN         0.000000       1.743868       2.320437

          ********************
          1 ELECTRON INTEGRALS
          ********************
 ...... END OF ONE-ELECTRON INTEGRALS ......
 CPU     0: STEP CPU TIME=     0.00 TOTAL CPU TIME=        0.0 (    0.0 MIN)
 TOTAL WALL CLOCK TIME=        0.0 SECONDS, CPU UTILIZATION IS 100.00%

          -------------
          GUESS OPTIONS
          -------------
          GUESS =HUCKEL            NORB  =       0          NORDER=       0
          MIX   =       F          PRTMO =       F          PUNMO =       F
          TOLZ  = 1.0E-08          TOLE  = 1.0E-05
          SYMDEN=       F          PURIFY=       F

 INITIAL GUESS ORBITALS GENERATED BY HUCKEL   ROUTINE.
 HUCKEL GUESS REQUIRES    126392 WORDS.

 STATISTICS FOR GENERATION OF SYMMETRY ORBITAL -Q- MATRIX
 NUMBER OF CARTESIAN ATOMIC ORBITALS=        130
 NUMBER OF SPHERICAL CONTAMINANTS DROPPED=    14
 NUMBER OF LINEARLY DEPENDENT MOS DROPPED=     0
 TOTAL NUMBER OF MOS IN VARIATION SPACE=     116

 SYMMETRIES FOR INITIAL GUESS ORBITALS FOLLOW.   BOTH SET(S).
     8 ORBITALS ARE OCCUPIED (    2 CORE ORBITALS).
     3=AG       4=B1U      5=B2U      6=AG       7=B3G      8=B3U      9=B2G 
    10=B2U     11=B1U     12=B3G     13=AG      14=AG      15=AG      16=AG  
    17=AG      18=AG  
 ...... END OF INITIAL ORBITAL SELECTION ......
 CPU     0: STEP CPU TIME=     0.01 TOTAL CPU TIME=        0.0 (    0.0 MIN)
 TOTAL WALL CLOCK TIME=        0.0 SECONDS, CPU UTILIZATION IS 100.00%

                    ----------------------
                    AO INTEGRAL TECHNOLOGY
                    ----------------------
     S,P,L SHELL ROTATED AXIS INTEGRALS, REPROGRAMMED BY
        KAZUYA ISHIMURA (IMS) AND JOSE SIERRA (SYNSTAR).
     S,P,D,L SHELL ROTATED AXIS INTEGRALS PROGRAMMED BY
        KAZUYA ISHIMURA (INSTITUTE FOR MOLECULAR SCIENCE).
     S,P,D,F,G SHELL TO TOTAL QUARTET ANGULAR MOMENTUM SUM 5,
        ERIC PROGRAM BY GRAHAM FLETCHER (ELORET AND NASA ADVANCED
        SUPERCOMPUTING DIVISION, AMES RESEARCH CENTER).
     S,P,D,F,G,L SHELL GENERAL RYS QUADRATURE PROGRAMMED BY
        MICHEL DUPUIS (PACIFIC NORTHWEST NATIONAL LABORATORY).

          --------------------
          2 ELECTRON INTEGRALS
          --------------------

 DIRECT SCF METHOD SKIPS INTEGRAL STORAGE ON DISK.
 DIRECT TRANSFORMATION SKIPS AO INTEGRAL STORAGE ON DISK.
  ...... END OF TWO-ELECTRON INTEGRALS .....
 CPU     0: STEP CPU TIME=     0.03 TOTAL CPU TIME=        0.1 (    0.0 MIN)
 TOTAL WALL CLOCK TIME=        0.1 SECONDS, CPU UTILIZATION IS 100.00%

          --------------------------
                 RHF SCF CALCULATION
          --------------------------

     NUCLEAR ENERGY =        33.4336717265
     MAXIT =   30     NPUNCH=    2
     EXTRAP=T  DAMP=F  SHIFT=F  RSTRCT=F  DIIS=F  DEM=F  SOSCF=T
     DENSITY MATRIX CONV=  2.00E-06
     SOSCF WILL OPTIMIZE     864 ORBITAL ROTATIONS, SOGTOL=   0.250
     MEMORY REQUIRED FOR RHF ITERS=    179656 WORDS.

 DIRECT SCF CALCULATION, SCHWRZ=T   FDIFF=T,  DIRTHR=  0.00E+00 NITDIR=10
 SCHWARZ INEQUALITY OVERHEAD:      8515 INTEGRALS, T=        0.00

                                                                                   NONZERO     BLOCKS
 ITER EX DEM     TOTAL ENERGY        E CHANGE  DENSITY CHANGE     ORB. GRAD      INTEGRALS    SKIPPED
   1  0  0      -77.8454874981   -77.8454874981   0.322303276   0.000000000        4620972       1380
          ---------------START SECOND ORDER SCF---------------
   2  1  0      -78.0517234078    -0.2062359097   0.029272746   0.048752188        4621021       1497
   3  2  0      -78.0623403592    -0.0106169514   0.012336724   0.009285143        4587699       2604
   4  3  0      -78.0638457293    -0.0015053701   0.002260851   0.002038036        4569237       3157
   5  4  0      -78.0638942277    -0.0000484984   0.000783526   0.000492106        4530356       4076
   6  5  0      -78.0638970543    -0.0000028266   0.000142029   0.000076770        4483547       5000
   7  6  0      -78.0638971589    -0.0000001046   0.000031920   0.000016547        4415802       6525
   8  7  0      -78.0638971632    -0.0000000042   0.000006345   0.000004705        4352906       8114
   9  8  0      -78.0638971633    -0.0000000001   0.000001825   0.000000810        4209333      12394
  10  9  0      -78.0638971633     0.0000000000   0.000000269   0.000000105        4014918      16741

          -----------------
          DENSITY CONVERGED
          -----------------
     TIME TO FORM FOCK OPERATORS=       1.3 SECONDS (       0.1 SEC/ITER)
     FOCK TIME ON FIRST ITERATION=       0.1, LAST ITERATION=       0.1
     TIME TO SOLVE SCF EQUATIONS=       0.0 SECONDS (       0.0 SEC/ITER)

 FINAL RHF ENERGY IS      -78.0638971633 AFTER  10 ITERATIONS

          ------------
          EIGENVECTORS
          ------------

                      1          2          3          4          5
                  -11.2290   -11.2272    -1.0332    -0.7921    -0.6436
                     AG         B1U        AG         B1U        B2U 
    1  C  1  S    0.691446   0.692157  -0.015162  -0.006469   0.000000
    2  C  1  S    0.000606   0.001349   0.357325   0.285473   0.000000
    3  C  1  S    0.029402   0.029229   0.072084   0.058316   0.000000
    4  C  1  S    0.002499   0.003919   0.129460   0.186366   0.000000
    5  C  1  X    0.000000   0.000000   0.000000   0.000000   0.000000
    6  C  1  Y    0.000000   0.000000   0.000000   0.000000   0.174328
    7  C  1  Z   -0.000107  -0.000548   0.062919  -0.088736   0.000000
    8  C  1  X    0.000000   0.000000   0.000000   0.000000   0.000000
    9  C  1  Y    0.000000   0.000000   0.000000   0.000000   0.207313
   10  C  1  Z    0.000380   0.003486   0.050391  -0.103479   0.000000
   11  C  1  X    0.000000   0.000000   0.000000   0.000000   0.000000
   12  C  1  Y    0.000000   0.000000   0.000000   0.000000   0.074606
   13  C  1  Z   -0.000229   0.001423   0.005559  -0.020331   0.000000
   14  C  1 XX   -0.000399  -0.000724  -0.012051  -0.007859   0.000000
   15  C  1 YY    0.000221   0.000092  -0.000263   0.008703   0.000000
   16  C  1 ZZ    0.000177   0.000632   0.012315  -0.000844   0.000000
   17  C  1 XY    0.000000   0.000000   0.000000   0.000000   0.000000
   18  C  1 XZ    0.000000   0.000000   0.000000   0.000000   0.000000
   19  C  1 YZ    0.000000   0.000000   0.000000   0.000000  -0.004806
   20  C  1 XX   -0.000018   0.000153  -0.012968  -0.016534   0.000000
   21  C  1 YY    0.000243  -0.001813   0.004078   0.015594   0.000000
   22  C  1 ZZ   -0.000225   0.001659   0.008890   0.000939   0.000000
   23  C  1 XY    0.000000   0.000000   0.000000   0.000000   0.000000
   24  C  1 XZ    0.000000   0.000000   0.000000   0.000000   0.000000
   25  C  1 YZ    0.000000   0.000000   0.000000   0.000000  -0.004203
   26  C  1 XXX   0.000000   0.000000   0.000000   0.000000   0.000000
   27  C  1 YYY   0.000000   0.000000   0.000000   0.000000  -0.002174
   28  C  1 ZZZ   0.000228   0.000737   0.007283   0.003624   0.000000
   29  C  1 XXY   0.000000   0.000000   0.000000   0.000000  -0.002508
   30  C  1 XXZ   0.000109  -0.000156  -0.000666   0.000417   0.000000
   31  C  1 YYX   0.000000   0.000000   0.000000   0.000000   0.000000
   32  C  1 YYZ  -0.000414  -0.000833  -0.009106  -0.005279   0.000000
   33  C  1 ZZX   0.000000   0.000000   0.000000   0.000000   0.000000
   34  C  1 ZZY   0.000000   0.000000   0.000000   0.000000   0.005425
   35  C  1 XYZ   0.000000   0.000000   0.000000   0.000000   0.000000
   36  C  2  S    0.691446  -0.692157  -0.015162   0.006469   0.000000
   37  C  2  S    0.000606  -0.001349   0.357325  -0.285473   0.000000
   38  C  2  S    0.029402  -0.029229   0.072084  -0.058316   0.000000
   39  C  2  S    0.002499  -0.003919   0.129460  -0.186366   0.000000
   40  C  2  X    0.000000   0.000000   0.000000   0.000000   0.000000
   41  C  2  Y    0.000000   0.000000   0.000000   0.000000   0.174328
   42  C  2  Z    0.000107  -0.000548  -0.062919  -0.088736   0.000000
   43  C  2  X    0.000000   0.000000   0.000000   0.000000   0.000000
   44  C  2  Y    0.000000   0.000000   0.000000   0.000000   0.207313
   45  C  2  Z   -0.000380   0.003486  -0.050391  -0.103479   0.000000
   46  C  2  X    0.000000   0.000000   0.000000   0.000000   0.000000
   47  C  2  Y    0.000000   0.000000   0.000000   0.000000   0.074606
   48  C  2  Z    0.000229   0.001423  -0.005559  -0.020331   0.000000
   49  C  2 XX   -0.000399   0.000724  -0.012051   0.007859   0.000000
   50  C  2 YY    0.000221  -0.000092  -0.000263  -0.008703   0.000000
   51  C  2 ZZ    0.000177  -0.000632   0.012315   0.000844   0.000000
   52  C  2 XY    0.000000   0.000000   0.000000   0.000000   0.000000
   53  C  2 XZ    0.000000   0.000000   0.000000   0.000000   0.000000
   54  C  2 YZ    0.000000   0.000000   0.000000   0.000000   0.004806
   55  C  2 XX   -0.000018  -0.000153  -0.012968   0.016534   0.000000
   56  C  2 YY    0.000243   0.001813   0.004078  -0.015594   0.000000
   57  C  2 ZZ   -0.000225  -0.001659   0.008890  -0.000939   0.000000
   58  C  2 XY    0.000000   0.000000   0.000000   0.000000   0.000000
   59  C  2 XZ    0.000000   0.000000   0.000000   0.000000   0.000000
   60  C  2 YZ    0.000000   0.000000   0.000000   0.000000   0.004203
   61  C  2 XXX   0.000000   0.000000   0.000000   0.000000   0.000000
   62  C  2 YYY   0.000000   0.000000   0.000000   0.000000  -0.002174
   63  C  2 ZZZ  -0.000228   0.000737  -0.007283   0.003624   0.000000
   64  C  2 XXY   0.000000   0.000000   0.000000   0.000000  -0.002508
   65  C  2 XXZ  -0.000109  -0.000156   0.000666   0.000417   0.000000
   66  C  2 YYX   0.000000   0.000000   0.000000   0.000000   0.000000
   67  C  2 YYZ   0.000414  -0.000833   0.009106  -0.005279   0.000000
   68  C  2 ZZX   0.000000   0.000000   0.000000   0.000000   0.000000
   69  C  2 ZZY   0.000000   0.000000   0.000000   0.000000   0.005425
   70  C  2 XYZ   0.000000   0.000000   0.000000   0.000000   0.000000
   71  H  3  S    0.000065  -0.000057   0.050198  -0.087984  -0.093832
   72  H  3  S    0.000011  -0.001692   0.037656  -0.106833  -0.145764
   73  H  3  S   -0.000521   0.000065   0.002039  -0.022923  -0.044170
   74  H  3  X    0.000000   0.000000   0.000000   0.000000   0.000000
   75  H  3  Y   -0.000195   0.000208   0.003235  -0.007996  -0.006232
   76  H  3  Z    0.000130  -0.000130  -0.003071   0.003273   0.006854
   77  H  3  X    0.000000   0.000000   0.000000   0.000000   0.000000
   78  H  3  Y    0.000075  -0.000383  -0.004954  -0.005635  -0.007202
   79  H  3  Z    0.000145   0.000615   0.002645  -0.000658   0.009322
   80  H  3 XX    0.000049  -0.000036   0.000056   0.000730   0.001481
   81  H  3 YY   -0.000060   0.000117  -0.000635  -0.001582  -0.000184
   82  H  3 ZZ    0.000011  -0.000081   0.000579   0.000853  -0.001297
   83  H  3 XY    0.000000   0.000000   0.000000   0.000000   0.000000
   84  H  3 XZ    0.000000   0.000000   0.000000   0.000000   0.000000
   85  H  3 YZ    0.000175  -0.000155   0.000303   0.000985   0.002971
   86  H  4  S    0.000065   0.000057   0.050198   0.087984   0.093832
   87  H  4  S    0.000011   0.001692   0.037656   0.106833   0.145764
   88  H  4  S   -0.000521  -0.000065   0.002039   0.022923   0.044170
   89  H  4  X    0.000000   0.000000   0.000000   0.000000   0.000000
   90  H  4  Y    0.000195   0.000208  -0.003235  -0.007996  -0.006232
   91  H  4  Z   -0.000130  -0.000130   0.003071   0.003273   0.006854
   92  H  4  X    0.000000   0.000000   0.000000   0.000000   0.000000
   93  H  4  Y   -0.000075  -0.000383   0.004954  -0.005635  -0.007202
   94  H  4  Z   -0.000145   0.000615  -0.002645  -0.000658   0.009322
   95  H  4 XX    0.000049   0.000036   0.000056  -0.000730  -0.001481
   96  H  4 YY   -0.000060  -0.000117  -0.000635   0.001582   0.000184
   97  H  4 ZZ    0.000011   0.000081   0.000579  -0.000853   0.001297
   98  H  4 XY    0.000000   0.000000   0.000000   0.000000   0.000000
   99  H  4 XZ    0.000000   0.000000   0.000000   0.000000   0.000000
  100  H  4 YZ    0.000175   0.000155   0.000303  -0.000985  -0.002971
  101  H  5  S    0.000065   0.000057   0.050198   0.087984  -0.093832
  102  H  5  S    0.000011   0.001692   0.037656   0.106833  -0.145764
  103  H  5  S   -0.000521  -0.000065   0.002039   0.022923  -0.044170
  104  H  5  X    0.000000   0.000000   0.000000   0.000000   0.000000
  105  H  5  Y   -0.000195  -0.000208   0.003235   0.007996  -0.006232
  106  H  5  Z   -0.000130  -0.000130   0.003071   0.003273  -0.006854
  107  H  5  X    0.000000   0.000000   0.000000   0.000000   0.000000
  108  H  5  Y    0.000075   0.000383  -0.004954   0.005635  -0.007202
  109  H  5  Z   -0.000145   0.000615  -0.002645  -0.000658  -0.009322
  110  H  5 XX    0.000049   0.000036   0.000056  -0.000730   0.001481
  111  H  5 YY   -0.000060  -0.000117  -0.000635   0.001582  -0.000184
  112  H  5 ZZ    0.000011   0.000081   0.000579  -0.000853  -0.001297
  113  H  5 XY    0.000000   0.000000   0.000000   0.000000   0.000000
  114  H  5 XZ    0.000000   0.000000   0.000000   0.000000   0.000000
  115  H  5 YZ   -0.000175  -0.000155  -0.000303   0.000985  -0.002971
  116  H  6  S    0.000065  -0.000057   0.050198  -0.087984   0.093832
  117  H  6  S    0.000011  -0.001692   0.037656  -0.106833   0.145764
  118  H  6  S   -0.000521   0.000065   0.002039  -0.022923   0.044170
  119  H  6  X    0.000000   0.000000   0.000000   0.000000   0.000000
  120  H  6  Y    0.000195  -0.000208  -0.003235   0.007996  -0.006232
  121  H  6  Z    0.000130  -0.000130  -0.003071   0.003273  -0.006854
  122  H  6  X    0.000000   0.000000   0.000000   0.000000   0.000000
  123  H  6  Y   -0.000075   0.000383   0.004954   0.005635  -0.007202
  124  H  6  Z    0.000145   0.000615   0.002645  -0.000658  -0.009322
  125  H  6 XX    0.000049  -0.000036   0.000056   0.000730  -0.001481
  126  H  6 YY   -0.000060   0.000117  -0.000635  -0.001582   0.000184
  127  H  6 ZZ    0.000011  -0.000081   0.000579   0.000853   0.001297
  128  H  6 XY    0.000000   0.000000   0.000000   0.000000   0.000000
  129  H  6 XZ    0.000000   0.000000   0.000000   0.000000   0.000000
  130  H  6 YZ   -0.000175   0.000155  -0.000303  -0.000985   0.002971

                      6          7          8          9         10
                   -0.5862    -0.5073    -0.3764     0.1522     0.1592
                     AG         B3G        B3U        B2G        AG  
    1  C  1  S    0.000062   0.000000   0.000000   0.000000   0.010463
    2  C  1  S    0.028704   0.000000   0.000000   0.000000   0.146607
    3  C  1  S    0.004872   0.000000   0.000000   0.000000   0.028836
    4  C  1  S   -0.016511   0.000000   0.000000   0.000000   2.011310
    5  C  1  X    0.000000   0.000000   0.203242   0.185781   0.000000
    6  C  1  Y    0.000000   0.165356   0.000000   0.000000   0.000000
    7  C  1  Z    0.227631   0.000000   0.000000   0.000000  -0.061598
    8  C  1  X    0.000000   0.000000   0.276821   0.211926   0.000000
    9  C  1  Y    0.000000   0.209418   0.000000   0.000000   0.000000
   10  C  1  Z    0.263283   0.000000   0.000000   0.000000  -0.211579
   11  C  1  X    0.000000   0.000000   0.219770   0.834633   0.000000
   12  C  1  Y    0.000000   0.126667   0.000000   0.000000   0.000000
   13  C  1  Z    0.099307   0.000000   0.000000   0.000000  -0.638865
   14  C  1 XX   -0.001255   0.000000   0.000000   0.000000  -0.001249
   15  C  1 YY   -0.014776   0.000000   0.000000   0.000000   0.000555
   16  C  1 ZZ    0.016031   0.000000   0.000000   0.000000   0.000694
   17  C  1 XY    0.000000   0.000000   0.000000   0.000000   0.000000
   18  C  1 XZ    0.000000   0.000000   0.014162  -0.016866   0.000000
   19  C  1 YZ    0.000000  -0.020579   0.000000   0.000000   0.000000
   20  C  1 XX    0.001392   0.000000   0.000000   0.000000  -0.094247
   21  C  1 YY   -0.014362   0.000000   0.000000   0.000000   0.075903
   22  C  1 ZZ    0.012970   0.000000   0.000000   0.000000   0.018344
   23  C  1 XY    0.000000   0.000000   0.000000   0.000000   0.000000
   24  C  1 XZ    0.000000   0.000000   0.027506   0.004756   0.000000
   25  C  1 YZ    0.000000  -0.035990   0.000000   0.000000   0.000000
   26  C  1 XXX   0.000000   0.000000  -0.005465  -0.002707   0.000000
   27  C  1 YYY   0.000000   0.003366   0.000000   0.000000   0.000000
   28  C  1 ZZZ   0.005819   0.000000   0.000000   0.000000   0.008320
   29  C  1 XXY   0.000000  -0.002742   0.000000   0.000000   0.000000
   30  C  1 XXZ  -0.004576   0.000000   0.000000   0.000000   0.006783
   31  C  1 YYX   0.000000   0.000000  -0.000407   0.000986   0.000000
   32  C  1 YYZ  -0.003231   0.000000   0.000000   0.000000  -0.017946
   33  C  1 ZZX   0.000000   0.000000   0.007739   0.002645   0.000000
   34  C  1 ZZY   0.000000  -0.001774   0.000000   0.000000   0.000000
   35  C  1 XYZ   0.000000   0.000000   0.000000   0.000000   0.000000
   36  C  2  S    0.000062   0.000000   0.000000   0.000000   0.010463
   37  C  2  S    0.028704   0.000000   0.000000   0.000000   0.146607
   38  C  2  S    0.004872   0.000000   0.000000   0.000000   0.028836
   39  C  2  S   -0.016511   0.000000   0.000000   0.000000   2.011310
   40  C  2  X    0.000000   0.000000   0.203242  -0.185781   0.000000
   41  C  2  Y    0.000000  -0.165356   0.000000   0.000000   0.000000
   42  C  2  Z   -0.227631   0.000000   0.000000   0.000000   0.061598
   43  C  2  X    0.000000   0.000000   0.276821  -0.211926   0.000000
   44  C  2  Y    0.000000  -0.209418   0.000000   0.000000   0.000000
   45  C  2  Z   -0.263283   0.000000   0.000000   0.000000   0.211579
   46  C  2  X    0.000000   0.000000   0.219770  -0.834633   0.000000
   47  C  2  Y    0.000000  -0.126667   0.000000   0.000000   0.000000
   48  C  2  Z   -0.099307   0.000000   0.000000   0.000000   0.638865
   49  C  2 XX   -0.001255   0.000000   0.000000   0.000000  -0.001249
   50  C  2 YY   -0.014776   0.000000   0.000000   0.000000   0.000555
   51  C  2 ZZ    0.016031   0.000000   0.000000   0.000000   0.000694
   52  C  2 XY    0.000000   0.000000   0.000000   0.000000   0.000000
   53  C  2 XZ    0.000000   0.000000  -0.014162  -0.016866   0.000000
   54  C  2 YZ    0.000000  -0.020579   0.000000   0.000000   0.000000
   55  C  2 XX    0.001392   0.000000   0.000000   0.000000  -0.094247
   56  C  2 YY   -0.014362   0.000000   0.000000   0.000000   0.075903
   57  C  2 ZZ    0.012970   0.000000   0.000000   0.000000   0.018344
   58  C  2 XY    0.000000   0.000000   0.000000   0.000000   0.000000
   59  C  2 XZ    0.000000   0.000000  -0.027506   0.004756   0.000000
   60  C  2 YZ    0.000000  -0.035990   0.000000   0.000000   0.000000
   61  C  2 XXX   0.000000   0.000000  -0.005465   0.002707   0.000000
   62  C  2 YYY   0.000000  -0.003366   0.000000   0.000000   0.000000
   63  C  2 ZZZ  -0.005819   0.000000   0.000000   0.000000  -0.008320
   64  C  2 XXY   0.000000   0.002742   0.000000   0.000000   0.000000
   65  C  2 XXZ   0.004576   0.000000   0.000000   0.000000  -0.006783
   66  C  2 YYX   0.000000   0.000000  -0.000407  -0.000986   0.000000
   67  C  2 YYZ   0.003231   0.000000   0.000000   0.000000   0.017946
   68  C  2 ZZX   0.000000   0.000000   0.007739  -0.002645   0.000000
   69  C  2 ZZY   0.000000   0.001774   0.000000   0.000000   0.000000
   70  C  2 XYZ   0.000000   0.000000   0.000000   0.000000   0.000000
   71  H  3  S   -0.075549   0.113138   0.000000   0.000000  -0.000522
   72  H  3  S   -0.118857   0.165335   0.000000   0.000000  -0.182539
   73  H  3  S   -0.045238   0.080772   0.000000   0.000000  -1.186758
   74  H  3  X    0.000000   0.000000   0.005101  -0.009420   0.000000
   75  H  3  Y   -0.007889   0.006819   0.000000   0.000000   0.013022
   76  H  3  Z    0.000765  -0.005348   0.000000   0.000000  -0.001339
   77  H  3  X    0.000000   0.000000   0.013411  -0.016913   0.000000
   78  H  3  Y   -0.011316   0.001968   0.000000   0.000000  -0.135601
   79  H  3  Z   -0.002150  -0.004611   0.000000   0.000000   0.064923
   80  H  3 XX    0.000766  -0.000792   0.000000   0.000000   0.006664
   81  H  3 YY   -0.002601   0.001095   0.000000   0.000000  -0.006661
   82  H  3 ZZ    0.001835  -0.000304   0.000000   0.000000  -0.000002
   83  H  3 XY    0.000000   0.000000   0.001639  -0.004121   0.000000
   84  H  3 XZ    0.000000   0.000000  -0.001613   0.000836   0.000000
   85  H  3 YZ    0.000989  -0.001560   0.000000   0.000000   0.006299
   86  H  4  S   -0.075549   0.113138   0.000000   0.000000  -0.000522
   87  H  4  S   -0.118857   0.165335   0.000000   0.000000  -0.182539
   88  H  4  S   -0.045238   0.080772   0.000000   0.000000  -1.186758
   89  H  4  X    0.000000   0.000000   0.005101   0.009420   0.000000
   90  H  4  Y    0.007889  -0.006819   0.000000   0.000000  -0.013022
   91  H  4  Z   -0.000765   0.005348   0.000000   0.000000   0.001339
   92  H  4  X    0.000000   0.000000   0.013411   0.016913   0.000000
   93  H  4  Y    0.011316  -0.001968   0.000000   0.000000   0.135601
   94  H  4  Z    0.002150   0.004611   0.000000   0.000000  -0.064923
   95  H  4 XX    0.000766  -0.000792   0.000000   0.000000   0.006664
   96  H  4 YY   -0.002601   0.001095   0.000000   0.000000  -0.006661
   97  H  4 ZZ    0.001835  -0.000304   0.000000   0.000000  -0.000002
   98  H  4 XY    0.000000   0.000000  -0.001639  -0.004121   0.000000
   99  H  4 XZ    0.000000   0.000000   0.001613   0.000836   0.000000
  100  H  4 YZ    0.000989  -0.001560   0.000000   0.000000   0.006299
  101  H  5  S   -0.075549  -0.113138   0.000000   0.000000  -0.000522
  102  H  5  S   -0.118857  -0.165335   0.000000   0.000000  -0.182539
  103  H  5  S   -0.045238  -0.080772   0.000000   0.000000  -1.186758
  104  H  5  X    0.000000   0.000000   0.005101   0.009420   0.000000
  105  H  5  Y   -0.007889  -0.006819   0.000000   0.000000   0.013022
  106  H  5  Z   -0.000765  -0.005348   0.000000   0.000000   0.001339
  107  H  5  X    0.000000   0.000000   0.013411   0.016913   0.000000
  108  H  5  Y   -0.011316  -0.001968   0.000000   0.000000  -0.135601
  109  H  5  Z    0.002150  -0.004611   0.000000   0.000000  -0.064923
  110  H  5 XX    0.000766   0.000792   0.000000   0.000000   0.006664
  111  H  5 YY   -0.002601  -0.001095   0.000000   0.000000  -0.006661
  112  H  5 ZZ    0.001835   0.000304   0.000000   0.000000  -0.000002
  113  H  5 XY    0.000000   0.000000   0.001639   0.004121   0.000000
  114  H  5 XZ    0.000000   0.000000   0.001613   0.000836   0.000000
  115  H  5 YZ   -0.000989  -0.001560   0.000000   0.000000  -0.006299
  116  H  6  S   -0.075549  -0.113138   0.000000   0.000000  -0.000522
  117  H  6  S   -0.118857  -0.165335   0.000000   0.000000  -0.182539
  118  H  6  S   -0.045238  -0.080772   0.000000   0.000000  -1.186758
  119  H  6  X    0.000000   0.000000   0.005101  -0.009420   0.000000
  120  H  6  Y    0.007889   0.006819   0.000000   0.000000  -0.013022
  121  H  6  Z    0.000765   0.005348   0.000000   0.000000  -0.001339
  122  H  6  X    0.000000   0.000000   0.013411  -0.016913   0.000000
  123  H  6  Y    0.011316   0.001968   0.000000   0.000000   0.135601
  124  H  6  Z   -0.002150   0.004611   0.000000   0.000000   0.064923
  125  H  6 XX    0.000766   0.000792   0.000000   0.000000   0.006664
  126  H  6 YY   -0.002601  -0.001095   0.000000   0.000000  -0.006661
  127  H  6 ZZ    0.001835   0.000304   0.000000   0.000000  -0.000002
  128  H  6 XY    0.000000   0.000000  -0.001639   0.004121   0.000000
  129  H  6 XZ    0.000000   0.000000  -0.001613   0.000836   0.000000
  130  H  6 YZ   -0.000989  -0.001560   0.000000   0.000000  -0.006299

                     11         12         13         14         15
                    0.1875     0.1908     0.2411     0.3676     0.3734
                     B1U        B2U        B3G        B1U        AG  
    1  C  1  S    0.018659   0.000000   0.000000   0.011947  -0.055479
    2  C  1  S    0.190430   0.000000   0.000000   0.063421  -0.143612
    3  C  1  S    0.026744   0.000000   0.000000  -0.008679  -0.053287
    4  C  1  S    3.466984   0.000000   0.000000   6.101743  -0.857595
    5  C  1  X    0.000000   0.000000   0.000000   0.000000   0.000000
    6  C  1  Y    0.000000   0.103165   0.087596   0.000000   0.000000
    7  C  1  Z   -0.037597   0.000000   0.000000   0.023742  -0.068479
    8  C  1  X    0.000000   0.000000   0.000000   0.000000   0.000000
    9  C  1  Y    0.000000   0.239296   0.308536   0.000000   0.000000
   10  C  1  Z   -0.092867   0.000000   0.000000   0.641256  -0.355183
   11  C  1  X    0.000000   0.000000   0.000000   0.000000   0.000000
   12  C  1  Y    0.000000   0.985119   2.746997   0.000000   0.000000
   13  C  1  Z    0.103132   0.000000   0.000000   5.067591   1.394432
   14  C  1 XX    0.003696   0.000000   0.000000   0.002612   0.006739
   15  C  1 YY    0.001455   0.000000   0.000000   0.007921   0.036146
   16  C  1 ZZ   -0.005151   0.000000   0.000000  -0.010533  -0.042886
   17  C  1 XY    0.000000   0.000000   0.000000   0.000000   0.000000
   18  C  1 XZ    0.000000   0.000000   0.000000   0.000000   0.000000
   19  C  1 YZ    0.000000   0.008754  -0.020875   0.000000   0.000000
   20  C  1 XX   -0.166954   0.000000   0.000000  -0.132305  -0.079253
   21  C  1 YY    0.132293   0.000000   0.000000  -0.253989  -0.115149
   22  C  1 ZZ    0.034662   0.000000   0.000000   0.386294   0.194402
   23  C  1 XY    0.000000   0.000000   0.000000   0.000000   0.000000
   24  C  1 XZ    0.000000   0.000000   0.000000   0.000000   0.000000
   25  C  1 YZ    0.000000  -0.061702  -0.053357   0.000000   0.000000
   26  C  1 XXX   0.000000   0.000000   0.000000   0.000000   0.000000
   27  C  1 YYY   0.000000   0.003594   0.012286   0.000000   0.000000
   28  C  1 ZZZ   0.008979   0.000000   0.000000   0.029917   0.020517
   29  C  1 XXY   0.000000  -0.006322  -0.017203   0.000000   0.000000
   30  C  1 XXZ  -0.001720   0.000000   0.000000  -0.031463  -0.022625
   31  C  1 YYX   0.000000   0.000000   0.000000   0.000000   0.000000
   32  C  1 YYZ  -0.010326   0.000000   0.000000  -0.008675  -0.004902
   33  C  1 ZZX   0.000000   0.000000   0.000000   0.000000   0.000000
   34  C  1 ZZY   0.000000   0.001500   0.000720   0.000000   0.000000
   35  C  1 XYZ   0.000000   0.000000   0.000000   0.000000   0.000000
   36  C  2  S   -0.018659   0.000000   0.000000  -0.011947  -0.055479
   37  C  2  S   -0.190430   0.000000   0.000000  -0.063421  -0.143612
   38  C  2  S   -0.026744   0.000000   0.000000   0.008679  -0.053287
   39  C  2  S   -3.466984   0.000000   0.000000  -6.101743  -0.857595
   40  C  2  X    0.000000   0.000000   0.000000   0.000000   0.000000
   41  C  2  Y    0.000000   0.103165  -0.087596   0.000000   0.000000
   42  C  2  Z   -0.037597   0.000000   0.000000   0.023742   0.068479
   43  C  2  X    0.000000   0.000000   0.000000   0.000000   0.000000
   44  C  2  Y    0.000000   0.239296  -0.308536   0.000000   0.000000
   45  C  2  Z   -0.092867   0.000000   0.000000   0.641256   0.355183
   46  C  2  X    0.000000   0.000000   0.000000   0.000000   0.000000
   47  C  2  Y    0.000000   0.985119  -2.746997   0.000000   0.000000
   48  C  2  Z    0.103132   0.000000   0.000000   5.067591  -1.394432
   49  C  2 XX   -0.003696   0.000000   0.000000  -0.002612   0.006739
   50  C  2 YY   -0.001455   0.000000   0.000000  -0.007921   0.036146
   51  C  2 ZZ    0.005151   0.000000   0.000000   0.010533  -0.042886
   52  C  2 XY    0.000000   0.000000   0.000000   0.000000   0.000000
   53  C  2 XZ    0.000000   0.000000   0.000000   0.000000   0.000000
   54  C  2 YZ    0.000000  -0.008754  -0.020875   0.000000   0.000000
   55  C  2 XX    0.166954   0.000000   0.000000   0.132305  -0.079253
   56  C  2 YY   -0.132293   0.000000   0.000000   0.253989  -0.115149
   57  C  2 ZZ   -0.034662   0.000000   0.000000  -0.386294   0.194402
   58  C  2 XY    0.000000   0.000000   0.000000   0.000000   0.000000
   59  C  2 XZ    0.000000   0.000000   0.000000   0.000000   0.000000
   60  C  2 YZ    0.000000   0.061702  -0.053357   0.000000   0.000000
   61  C  2 XXX   0.000000   0.000000   0.000000   0.000000   0.000000
   62  C  2 YYY   0.000000   0.003594  -0.012286   0.000000   0.000000
   63  C  2 ZZZ   0.008979   0.000000   0.000000   0.029917  -0.020517
   64  C  2 XXY   0.000000  -0.006322   0.017203   0.000000   0.000000
   65  C  2 XXZ  -0.001720   0.000000   0.000000  -0.031463   0.022625
   66  C  2 YYX   0.000000   0.000000   0.000000   0.000000   0.000000
   67  C  2 YYZ  -0.010326   0.000000   0.000000  -0.008675   0.004902
   68  C  2 ZZX   0.000000   0.000000   0.000000   0.000000   0.000000
   69  C  2 ZZY   0.000000   0.001500  -0.000720   0.000000   0.000000
   70  C  2 XYZ   0.000000   0.000000   0.000000   0.000000   0.000000
   71  H  3  S    0.002960   0.012686   0.026120  -0.026559   0.018326
   72  H  3  S    0.251553   0.074760  -0.249408  -0.301192   0.369488
   73  H  3  S    1.361854   1.563649  -2.478930  -1.314198   0.138398
   74  H  3  X    0.000000   0.000000   0.000000   0.000000   0.000000
   75  H  3  Y   -0.013270  -0.010045   0.009480   0.006152   0.000456
   76  H  3  Z    0.008173   0.013002  -0.012574   0.017365  -0.009628
   77  H  3  X    0.000000   0.000000   0.000000   0.000000   0.000000
   78  H  3  Y    0.145364   0.085170  -0.122812  -0.082156  -0.065712
   79  H  3  Z   -0.097595  -0.078188   0.131586   0.024806  -0.031704
   80  H  3 XX   -0.005942  -0.002621   0.005377   0.003622   0.006720
   81  H  3 YY    0.003865   0.002918  -0.003567  -0.004247  -0.012689
   82  H  3 ZZ    0.002077  -0.000296  -0.001811   0.000625   0.005968
   83  H  3 XY    0.000000   0.000000   0.000000   0.000000   0.000000
   84  H  3 XZ    0.000000   0.000000   0.000000   0.000000   0.000000
   85  H  3 YZ   -0.005098  -0.004092   0.011692   0.010216  -0.000951
   86  H  4  S   -0.002960  -0.012686   0.026120   0.026559   0.018326
   87  H  4  S   -0.251553  -0.074760  -0.249408   0.301192   0.369488
   88  H  4  S   -1.361854  -1.563649  -2.478930   1.314198   0.138398
   89  H  4  X    0.000000   0.000000   0.000000   0.000000   0.000000
   90  H  4  Y   -0.013270  -0.010045  -0.009480   0.006152  -0.000456
   91  H  4  Z    0.008173   0.013002   0.012574   0.017365   0.009628
   92  H  4  X    0.000000   0.000000   0.000000   0.000000   0.000000
   93  H  4  Y    0.145364   0.085170   0.122812  -0.082156   0.065712
   94  H  4  Z   -0.097595  -0.078188  -0.131586   0.024806   0.031704
   95  H  4 XX    0.005942   0.002621   0.005377  -0.003622   0.006720
   96  H  4 YY   -0.003865  -0.002918  -0.003567   0.004247  -0.012689
   97  H  4 ZZ   -0.002077   0.000296  -0.001811  -0.000625   0.005968
   98  H  4 XY    0.000000   0.000000   0.000000   0.000000   0.000000
   99  H  4 XZ    0.000000   0.000000   0.000000   0.000000   0.000000
  100  H  4 YZ    0.005098   0.004092   0.011692  -0.010216  -0.000951
  101  H  5  S   -0.002960   0.012686  -0.026120   0.026559   0.018326
  102  H  5  S   -0.251553   0.074760   0.249408   0.301192   0.369488
  103  H  5  S   -1.361854   1.563649   2.478930   1.314198   0.138398
  104  H  5  X    0.000000   0.000000   0.000000   0.000000   0.000000
  105  H  5  Y    0.013270  -0.010045  -0.009480  -0.006152   0.000456
  106  H  5  Z    0.008173  -0.013002  -0.012574   0.017365   0.009628
  107  H  5  X    0.000000   0.000000   0.000000   0.000000   0.000000
  108  H  5  Y   -0.145364   0.085170   0.122812   0.082156  -0.065712
  109  H  5  Z   -0.097595   0.078188   0.131586   0.024806   0.031704
  110  H  5 XX    0.005942  -0.002621  -0.005377  -0.003622   0.006720
  111  H  5 YY   -0.003865   0.002918   0.003567   0.004247  -0.012689
  112  H  5 ZZ   -0.002077  -0.000296   0.001811  -0.000625   0.005968
  113  H  5 XY    0.000000   0.000000   0.000000   0.000000   0.000000
  114  H  5 XZ    0.000000   0.000000   0.000000   0.000000   0.000000
  115  H  5 YZ   -0.005098   0.004092   0.011692   0.010216   0.000951
  116  H  6  S    0.002960  -0.012686  -0.026120  -0.026559   0.018326
  117  H  6  S    0.251553  -0.074760   0.249408  -0.301192   0.369488
  118  H  6  S    1.361854  -1.563649   2.478930  -1.314198   0.138398
  119  H  6  X    0.000000   0.000000   0.000000   0.000000   0.000000
  120  H  6  Y    0.013270  -0.010045   0.009480  -0.006152  -0.000456
  121  H  6  Z    0.008173  -0.013002   0.012574   0.017365  -0.009628
  122  H  6  X    0.000000   0.000000   0.000000   0.000000   0.000000
  123  H  6  Y   -0.145364   0.085170  -0.122812   0.082156   0.065712
  124  H  6  Z   -0.097595   0.078188  -0.131586   0.024806  -0.031704
  125  H  6 XX   -0.005942   0.002621  -0.005377   0.003622   0.006720
  126  H  6 YY    0.003865  -0.002918   0.003567  -0.004247  -0.012689
  127  H  6 ZZ    0.002077   0.000296   0.001811   0.000625   0.005968
  128  H  6 XY    0.000000   0.000000   0.000000   0.000000   0.000000
  129  H  6 XZ    0.000000   0.000000   0.000000   0.000000   0.000000
  130  H  6 YZ    0.005098  -0.004092   0.011692  -0.010216   0.000951

                     16         17         18         19         20
                    0.4420     0.4467     0.4864     0.5656     0.5898
                     B2U        B3U        AG         B2G        B1U 
    1  C  1  S    0.000000   0.000000  -0.027312   0.000000   0.004559
    2  C  1  S    0.000000   0.000000  -0.116867   0.000000   0.126664
    3  C  1  S    0.000000   0.000000  -0.063485   0.000000  -0.081248
    4  C  1  S    0.000000   0.000000   2.059015   0.000000   8.565038
    5  C  1  X    0.000000  -0.136808   0.000000  -0.204200   0.000000
    6  C  1  Y   -0.009494   0.000000   0.000000   0.000000   0.000000
    7  C  1  Z    0.000000   0.000000  -0.067020   0.000000   0.072463
    8  C  1  X    0.000000  -0.543886   0.000000  -0.588512   0.000000
    9  C  1  Y    0.411269   0.000000   0.000000   0.000000   0.000000
   10  C  1  Z    0.000000   0.000000  -0.601559   0.000000  -0.497839
   11  C  1  X    0.000000   0.724423   0.000000   1.547443   0.000000
   12  C  1  Y    1.179922   0.000000   0.000000   0.000000   0.000000
   13  C  1  Z    0.000000   0.000000  -0.029818   0.000000   2.339621
   14  C  1 XX    0.000000   0.000000  -0.004280   0.000000   0.015472
   15  C  1 YY    0.000000   0.000000   0.031086   0.000000  -0.000956
   16  C  1 ZZ    0.000000   0.000000  -0.026807   0.000000  -0.014516
   17  C  1 XY    0.000000   0.000000   0.000000   0.000000   0.000000
   18  C  1 XZ    0.000000  -0.003889   0.000000  -0.007872   0.000000
   19  C  1 YZ    0.026025   0.000000   0.000000   0.000000   0.000000
   20  C  1 XX    0.000000   0.000000  -0.066142   0.000000  -0.457252
   21  C  1 YY    0.000000   0.000000   0.086359   0.000000   0.681282
   22  C  1 ZZ    0.000000   0.000000  -0.020217   0.000000  -0.224030
   23  C  1 XY    0.000000   0.000000   0.000000   0.000000   0.000000
   24  C  1 XZ    0.000000  -0.110612   0.000000   0.265575   0.000000
   25  C  1 YZ   -0.284277   0.000000   0.000000   0.000000   0.000000
   26  C  1 XXX   0.000000  -0.006986   0.000000  -0.020461   0.000000
   27  C  1 YYY   0.009457   0.000000   0.000000   0.000000   0.000000
   28  C  1 ZZZ   0.000000   0.000000   0.043150   0.000000   0.050786
   29  C  1 XXY  -0.034287   0.000000   0.000000   0.000000   0.000000
   30  C  1 XXZ   0.000000   0.000000   0.014948   0.000000   0.020919
   31  C  1 YYX   0.000000   0.003924   0.000000  -0.006783   0.000000
   32  C  1 YYZ   0.000000   0.000000  -0.072840   0.000000  -0.089055
   33  C  1 ZZX   0.000000   0.005448   0.000000   0.034234   0.000000
   34  C  1 ZZY   0.021599   0.000000   0.000000   0.000000   0.000000
   35  C  1 XYZ   0.000000   0.000000   0.000000   0.000000   0.000000
   36  C  2  S    0.000000   0.000000  -0.027312   0.000000  -0.004559
   37  C  2  S    0.000000   0.000000  -0.116867   0.000000  -0.126664
   38  C  2  S    0.000000   0.000000  -0.063485   0.000000   0.081248
   39  C  2  S    0.000000   0.000000   2.059015   0.000000  -8.565038
   40  C  2  X    0.000000  -0.136808   0.000000   0.204200   0.000000
   41  C  2  Y   -0.009494   0.000000   0.000000   0.000000   0.000000
   42  C  2  Z    0.000000   0.000000   0.067020   0.000000   0.072463
   43  C  2  X    0.000000  -0.543886   0.000000   0.588512   0.000000
   44  C  2  Y    0.411269   0.000000   0.000000   0.000000   0.000000
   45  C  2  Z    0.000000   0.000000   0.601559   0.000000  -0.497839
   46  C  2  X    0.000000   0.724423   0.000000  -1.547443   0.000000
   47  C  2  Y    1.179922   0.000000   0.000000   0.000000   0.000000
   48  C  2  Z    0.000000   0.000000   0.029818   0.000000   2.339621
   49  C  2 XX    0.000000   0.000000  -0.004280   0.000000  -0.015472
   50  C  2 YY    0.000000   0.000000   0.031086   0.000000   0.000956
   51  C  2 ZZ    0.000000   0.000000  -0.026807   0.000000   0.014516
   52  C  2 XY    0.000000   0.000000   0.000000   0.000000   0.000000
   53  C  2 XZ    0.000000   0.003889   0.000000  -0.007872   0.000000
   54  C  2 YZ   -0.026025   0.000000   0.000000   0.000000   0.000000
   55  C  2 XX    0.000000   0.000000  -0.066142   0.000000   0.457252
   56  C  2 YY    0.000000   0.000000   0.086359   0.000000  -0.681282
   57  C  2 ZZ    0.000000   0.000000  -0.020217   0.000000   0.224030
   58  C  2 XY    0.000000   0.000000   0.000000   0.000000   0.000000
   59  C  2 XZ    0.000000   0.110612   0.000000   0.265575   0.000000
   60  C  2 YZ    0.284277   0.000000   0.000000   0.000000   0.000000
   61  C  2 XXX   0.000000  -0.006986   0.000000   0.020461   0.000000
   62  C  2 YYY   0.009457   0.000000   0.000000   0.000000   0.000000
   63  C  2 ZZZ   0.000000   0.000000  -0.043150   0.000000   0.050786
   64  C  2 XXY  -0.034287   0.000000   0.000000   0.000000   0.000000
   65  C  2 XXZ   0.000000   0.000000  -0.014948   0.000000   0.020919
   66  C  2 YYX   0.000000   0.003924   0.000000   0.006783   0.000000
   67  C  2 YYZ   0.000000   0.000000   0.072840   0.000000  -0.089055
   68  C  2 ZZX   0.000000   0.005448   0.000000  -0.034234   0.000000
   69  C  2 ZZY   0.021599   0.000000   0.000000   0.000000   0.000000
   70  C  2 XYZ   0.000000   0.000000   0.000000   0.000000   0.000000
   71  H  3  S    0.059042   0.000000  -0.024002   0.000000   0.033527
   72  H  3  S    1.113021   0.000000  -1.043186   0.000000   1.981632
   73  H  3  S    0.336778   0.000000  -0.327719   0.000000  -0.101712
   74  H  3  X    0.000000   0.006417   0.000000  -0.009109   0.000000
   75  H  3  Y    0.019224   0.000000  -0.018732   0.000000   0.032786
   76  H  3  Z   -0.011902   0.000000   0.004427   0.000000  -0.013932
   77  H  3  X    0.000000  -0.048768   0.000000   0.072437   0.000000
   78  H  3  Y    0.190693   0.000000  -0.232381   0.000000   0.284945
   79  H  3  Z   -0.010416   0.000000   0.169462   0.000000  -0.334777
   80  H  3 XX   -0.004622   0.000000   0.023977   0.000000  -0.023208
   81  H  3 YY    0.013459   0.000000  -0.025531   0.000000   0.014485
   82  H  3 ZZ   -0.008837   0.000000   0.001553   0.000000   0.008723
   83  H  3 XY    0.000000  -0.001677   0.000000  -0.005474   0.000000
   84  H  3 XZ    0.000000  -0.000527   0.000000  -0.002729   0.000000
   85  H  3 YZ   -0.012978   0.000000   0.026413   0.000000  -0.028511
   86  H  4  S   -0.059042   0.000000  -0.024002   0.000000  -0.033527
   87  H  4  S   -1.113021   0.000000  -1.043186   0.000000  -1.981632
   88  H  4  S   -0.336778   0.000000  -0.327719   0.000000   0.101712
   89  H  4  X    0.000000   0.006417   0.000000   0.009109   0.000000
   90  H  4  Y    0.019224   0.000000   0.018732   0.000000   0.032786
   91  H  4  Z   -0.011902   0.000000  -0.004427   0.000000  -0.013932
   92  H  4  X    0.000000  -0.048768   0.000000  -0.072437   0.000000
   93  H  4  Y    0.190693   0.000000   0.232381   0.000000   0.284945
   94  H  4  Z   -0.010416   0.000000  -0.169462   0.000000  -0.334777
   95  H  4 XX    0.004622   0.000000   0.023977   0.000000   0.023208
   96  H  4 YY   -0.013459   0.000000  -0.025531   0.000000  -0.014485
   97  H  4 ZZ    0.008837   0.000000   0.001553   0.000000  -0.008723
   98  H  4 XY    0.000000   0.001677   0.000000  -0.005474   0.000000
   99  H  4 XZ    0.000000   0.000527   0.000000  -0.002729   0.000000
  100  H  4 YZ    0.012978   0.000000   0.026413   0.000000   0.028511
  101  H  5  S    0.059042   0.000000  -0.024002   0.000000  -0.033527
  102  H  5  S    1.113021   0.000000  -1.043186   0.000000  -1.981632
  103  H  5  S    0.336778   0.000000  -0.327719   0.000000   0.101712
  104  H  5  X    0.000000   0.006417   0.000000   0.009109   0.000000
  105  H  5  Y    0.019224   0.000000  -0.018732   0.000000  -0.032786
  106  H  5  Z    0.011902   0.000000  -0.004427   0.000000  -0.013932
  107  H  5  X    0.000000  -0.048768   0.000000  -0.072437   0.000000
  108  H  5  Y    0.190693   0.000000  -0.232381   0.000000  -0.284945
  109  H  5  Z    0.010416   0.000000  -0.169462   0.000000  -0.334777
  110  H  5 XX   -0.004622   0.000000   0.023977   0.000000   0.023208
  111  H  5 YY    0.013459   0.000000  -0.025531   0.000000  -0.014485
  112  H  5 ZZ   -0.008837   0.000000   0.001553   0.000000  -0.008723
  113  H  5 XY    0.000000  -0.001677   0.000000   0.005474   0.000000
  114  H  5 XZ    0.000000   0.000527   0.000000  -0.002729   0.000000
  115  H  5 YZ    0.012978   0.000000  -0.026413   0.000000  -0.028511
  116  H  6  S   -0.059042   0.000000  -0.024002   0.000000   0.033527
  117  H  6  S   -1.113021   0.000000  -1.043186   0.000000   1.981632
  118  H  6  S   -0.336778   0.000000  -0.327719   0.000000  -0.101712
  119  H  6  X    0.000000   0.006417   0.000000  -0.009109   0.000000
  120  H  6  Y    0.019224   0.000000   0.018732   0.000000  -0.032786
  121  H  6  Z    0.011902   0.000000   0.004427   0.000000  -0.013932
  122  H  6  X    0.000000  -0.048768   0.000000   0.072437   0.000000
  123  H  6  Y    0.190693   0.000000   0.232381   0.000000  -0.284945
  124  H  6  Z    0.010416   0.000000   0.169462   0.000000  -0.334777
  125  H  6 XX    0.004622   0.000000   0.023977   0.000000  -0.023208
  126  H  6 YY   -0.013459   0.000000  -0.025531   0.000000   0.014485
  127  H  6 ZZ    0.008837   0.000000   0.001553   0.000000   0.008723
  128  H  6 XY    0.000000   0.001677   0.000000   0.005474   0.000000
  129  H  6 XZ    0.000000  -0.000527   0.000000  -0.002729   0.000000
  130  H  6 YZ   -0.012978   0.000000  -0.026413   0.000000   0.028511

                     21         22         23         24         25
                    0.5955     0.6364     0.6392     0.6785     0.6945
                     B2U        AG         B1U        B1G        B3G 
    1  C  1  S    0.000000   0.022062   0.026866   0.000000   0.000000
    2  C  1  S    0.000000  -0.193379  -0.213128   0.000000   0.000000
    3  C  1  S    0.000000  -0.077731  -0.153837   0.000000   0.000000
    4  C  1  S    0.000000   3.756975   8.336915   0.000000   0.000000
    5  C  1  X    0.000000   0.000000   0.000000   0.000000   0.000000
    6  C  1  Y   -0.197251   0.000000   0.000000   0.000000  -0.218116
    7  C  1  Z    0.000000   0.126541   0.100792   0.000000   0.000000
    8  C  1  X    0.000000   0.000000   0.000000   0.000000   0.000000
    9  C  1  Y    0.542546   0.000000   0.000000   0.000000   0.258046
   10  C  1  Z    0.000000  -0.352231  -0.637141   0.000000   0.000000
   11  C  1  X    0.000000   0.000000   0.000000   0.000000   0.000000
   12  C  1  Y    2.204854   0.000000   0.000000   0.000000   5.932698
   13  C  1  Z    0.000000  -1.134683   0.277570   0.000000   0.000000
   14  C  1 XX    0.000000  -0.023805  -0.009298   0.000000   0.000000
   15  C  1 YY    0.000000   0.038140   0.016702   0.000000   0.000000
   16  C  1 ZZ    0.000000  -0.014335  -0.007404   0.000000   0.000000
   17  C  1 XY    0.000000   0.000000   0.000000  -0.002929   0.000000
   18  C  1 XZ    0.000000   0.000000   0.000000   0.000000   0.000000
   19  C  1 YZ   -0.036245   0.000000   0.000000   0.000000  -0.027490
   20  C  1 XX    0.000000  -0.400393  -0.782562   0.000000   0.000000
   21  C  1 YY    0.000000   0.451185   0.962298   0.000000   0.000000
   22  C  1 ZZ    0.000000  -0.050792  -0.179736   0.000000   0.000000
   23  C  1 XY    0.000000   0.000000   0.000000   0.389698   0.000000
   24  C  1 XZ    0.000000   0.000000   0.000000   0.000000   0.000000
   25  C  1 YZ   -0.734893   0.000000   0.000000   0.000000  -0.561413
   26  C  1 XXX   0.000000   0.000000   0.000000   0.000000   0.000000
   27  C  1 YYY   0.037342   0.000000   0.000000   0.000000   0.031859
   28  C  1 ZZZ   0.000000   0.038336   0.045922   0.000000   0.000000
   29  C  1 XXY  -0.054129   0.000000   0.000000   0.000000  -0.061627
   30  C  1 XXZ   0.000000   0.031013   0.026293   0.000000   0.000000
   31  C  1 YYX   0.000000   0.000000   0.000000   0.000000   0.000000
   32  C  1 YYZ   0.000000  -0.082446  -0.087904   0.000000   0.000000
   33  C  1 ZZX   0.000000   0.000000   0.000000   0.000000   0.000000
   34  C  1 ZZY   0.004030   0.000000   0.000000   0.000000   0.018883
   35  C  1 XYZ   0.000000   0.000000   0.000000   0.002554   0.000000
   36  C  2  S    0.000000   0.022062  -0.026866   0.000000   0.000000
   37  C  2  S    0.000000  -0.193379   0.213128   0.000000   0.000000
   38  C  2  S    0.000000  -0.077731   0.153837   0.000000   0.000000
   39  C  2  S    0.000000   3.756975  -8.336915   0.000000   0.000000
   40  C  2  X    0.000000   0.000000   0.000000   0.000000   0.000000
   41  C  2  Y   -0.197251   0.000000   0.000000   0.000000   0.218116
   42  C  2  Z    0.000000  -0.126541   0.100792   0.000000   0.000000
   43  C  2  X    0.000000   0.000000   0.000000   0.000000   0.000000
   44  C  2  Y    0.542546   0.000000   0.000000   0.000000  -0.258046
   45  C  2  Z    0.000000   0.352231  -0.637141   0.000000   0.000000
   46  C  2  X    0.000000   0.000000   0.000000   0.000000   0.000000
   47  C  2  Y    2.204854   0.000000   0.000000   0.000000  -5.932698
   48  C  2  Z    0.000000   1.134683   0.277570   0.000000   0.000000
   49  C  2 XX    0.000000  -0.023805   0.009298   0.000000   0.000000
   50  C  2 YY    0.000000   0.038140  -0.016702   0.000000   0.000000
   51  C  2 ZZ    0.000000  -0.014335   0.007404   0.000000   0.000000
   52  C  2 XY    0.000000   0.000000   0.000000  -0.002929   0.000000
   53  C  2 XZ    0.000000   0.000000   0.000000   0.000000   0.000000
   54  C  2 YZ    0.036245   0.000000   0.000000   0.000000  -0.027490
   55  C  2 XX    0.000000  -0.400393   0.782562   0.000000   0.000000
   56  C  2 YY    0.000000   0.451185  -0.962298   0.000000   0.000000
   57  C  2 ZZ    0.000000  -0.050792   0.179736   0.000000   0.000000
   58  C  2 XY    0.000000   0.000000   0.000000   0.389698   0.000000
   59  C  2 XZ    0.000000   0.000000   0.000000   0.000000   0.000000
   60  C  2 YZ    0.734893   0.000000   0.000000   0.000000  -0.561413
   61  C  2 XXX   0.000000   0.000000   0.000000   0.000000   0.000000
   62  C  2 YYY   0.037342   0.000000   0.000000   0.000000  -0.031859
   63  C  2 ZZZ   0.000000  -0.038336   0.045922   0.000000   0.000000
   64  C  2 XXY  -0.054129   0.000000   0.000000   0.000000   0.061627
   65  C  2 XXZ   0.000000  -0.031013   0.026293   0.000000   0.000000
   66  C  2 YYX   0.000000   0.000000   0.000000   0.000000   0.000000
   67  C  2 YYZ   0.000000   0.082446  -0.087904   0.000000   0.000000
   68  C  2 ZZX   0.000000   0.000000   0.000000   0.000000   0.000000
   69  C  2 ZZY   0.004030   0.000000   0.000000   0.000000  -0.018883
   70  C  2 XYZ   0.000000   0.000000   0.000000  -0.002554   0.000000
   71  H  3  S   -0.058312   0.066561  -0.075999   0.000000   0.041875
   72  H  3  S    0.951263  -0.792600   1.599628   0.000000  -1.441087
   73  H  3  S    1.856347  -1.341210   1.586188   0.000000  -2.843309
   74  H  3  X    0.000000   0.000000   0.000000   0.024578   0.000000
   75  H  3  Y    0.006871   0.001972   0.005424   0.000000  -0.010730
   76  H  3  Z    0.002985   0.005624  -0.005535   0.000000  -0.002193
   77  H  3  X    0.000000   0.000000   0.000000  -0.238415   0.000000
   78  H  3  Y    0.528408  -0.635111   0.748467   0.000000  -0.485090
   79  H  3  Z   -0.386918   0.268103  -0.555308   0.000000   0.379713
   80  H  3 XX   -0.017537   0.028589  -0.033511   0.000000   0.014477
   81  H  3 YY    0.018894  -0.033053   0.025792   0.000000  -0.017335
   82  H  3 ZZ   -0.001357   0.004464   0.007719   0.000000   0.002859
   83  H  3 XY    0.000000   0.000000   0.000000   0.010058   0.000000
   84  H  3 XZ    0.000000   0.000000   0.000000  -0.002867   0.000000
   85  H  3 YZ   -0.033581   0.031167  -0.038912   0.000000   0.030989
   86  H  4  S    0.058312   0.066561   0.075999   0.000000   0.041875
   87  H  4  S   -0.951263  -0.792600  -1.599628   0.000000  -1.441087
   88  H  4  S   -1.856347  -1.341210  -1.586188   0.000000  -2.843309
   89  H  4  X    0.000000   0.000000   0.000000  -0.024578   0.000000
   90  H  4  Y    0.006871  -0.001972   0.005424   0.000000   0.010730
   91  H  4  Z    0.002985  -0.005624  -0.005535   0.000000   0.002193
   92  H  4  X    0.000000   0.000000   0.000000   0.238415   0.000000
   93  H  4  Y    0.528408   0.635111   0.748467   0.000000   0.485090
   94  H  4  Z   -0.386918  -0.268103  -0.555308   0.000000  -0.379713
   95  H  4 XX    0.017537   0.028589   0.033511   0.000000   0.014477
   96  H  4 YY   -0.018894  -0.033053  -0.025792   0.000000  -0.017335
   97  H  4 ZZ    0.001357   0.004464  -0.007719   0.000000   0.002859
   98  H  4 XY    0.000000   0.000000   0.000000   0.010058   0.000000
   99  H  4 XZ    0.000000   0.000000   0.000000  -0.002867   0.000000
  100  H  4 YZ    0.033581   0.031167   0.038912   0.000000   0.030989
  101  H  5  S   -0.058312   0.066561   0.075999   0.000000  -0.041875
  102  H  5  S    0.951263  -0.792600  -1.599628   0.000000   1.441087
  103  H  5  S    1.856347  -1.341210  -1.586188   0.000000   2.843309
  104  H  5  X    0.000000   0.000000   0.000000   0.024578   0.000000
  105  H  5  Y    0.006871   0.001972  -0.005424   0.000000   0.010730
  106  H  5  Z   -0.002985  -0.005624  -0.005535   0.000000  -0.002193
  107  H  5  X    0.000000   0.000000   0.000000  -0.238415   0.000000
  108  H  5  Y    0.528408  -0.635111  -0.748467   0.000000   0.485090
  109  H  5  Z    0.386918  -0.268103  -0.555308   0.000000   0.379713
  110  H  5 XX   -0.017537   0.028589   0.033511   0.000000  -0.014477
  111  H  5 YY    0.018894  -0.033053  -0.025792   0.000000   0.017335
  112  H  5 ZZ   -0.001357   0.004464  -0.007719   0.000000  -0.002859
  113  H  5 XY    0.000000   0.000000   0.000000   0.010058   0.000000
  114  H  5 XZ    0.000000   0.000000   0.000000   0.002867   0.000000
  115  H  5 YZ    0.033581  -0.031167  -0.038912   0.000000   0.030989
  116  H  6  S    0.058312   0.066561  -0.075999   0.000000  -0.041875
  117  H  6  S   -0.951263  -0.792600   1.599628   0.000000   1.441087
  118  H  6  S   -1.856347  -1.341210   1.586188   0.000000   2.843309
  119  H  6  X    0.000000   0.000000   0.000000  -0.024578   0.000000
  120  H  6  Y    0.006871  -0.001972  -0.005424   0.000000  -0.010730
  121  H  6  Z   -0.002985   0.005624  -0.005535   0.000000   0.002193
  122  H  6  X    0.000000   0.000000   0.000000   0.238415   0.000000
  123  H  6  Y    0.528408   0.635111  -0.748467   0.000000  -0.485090
  124  H  6  Z    0.386918   0.268103  -0.555308   0.000000  -0.379713
  125  H  6 XX    0.017537   0.028589  -0.033511   0.000000  -0.014477
  126  H  6 YY   -0.018894  -0.033053   0.025792   0.000000   0.017335
  127  H  6 ZZ    0.001357   0.004464   0.007719   0.000000  -0.002859
  128  H  6 XY    0.000000   0.000000   0.000000   0.010058   0.000000
  129  H  6 XZ    0.000000   0.000000   0.000000   0.002867   0.000000
  130  H  6 YZ   -0.033581  -0.031167   0.038912   0.000000   0.030989

                     26         27         28         29         30
                    0.7927     0.8299     0.8547     0.8772     0.9887
                     B1U        AU         B3G        B3U        AG  
    1  C  1  S    0.012193   0.000000   0.000000   0.000000  -0.020640
    2  C  1  S   -0.166159   0.000000   0.000000   0.000000  -0.013531
    3  C  1  S   -0.118594   0.000000   0.000000   0.000000  -0.071139
    4  C  1  S    8.941357   0.000000   0.000000   0.000000   1.414945
    5  C  1  X    0.000000   0.000000   0.000000  -0.022279   0.000000
    6  C  1  Y    0.000000   0.000000   0.121923   0.000000   0.000000
    7  C  1  Z   -0.251605   0.000000   0.000000   0.000000  -0.066663
    8  C  1  X    0.000000   0.000000   0.000000  -0.124126   0.000000
    9  C  1  Y    0.000000   0.000000   0.446687   0.000000   0.000000
   10  C  1  Z    0.432260   0.000000   0.000000   0.000000  -0.162676
   11  C  1  X    0.000000   0.000000   0.000000   0.267308   0.000000
   12  C  1  Y    0.000000   0.000000   3.779167   0.000000   0.000000
   13  C  1  Z    4.909730   0.000000   0.000000   0.000000  -0.996213
   14  C  1 XX   -0.010964   0.000000   0.000000   0.000000   0.015878
   15  C  1 YY   -0.040370   0.000000   0.000000   0.000000  -0.000337
   16  C  1 ZZ    0.051333   0.000000   0.000000   0.000000  -0.015541
   17  C  1 XY    0.000000   0.006912   0.000000   0.000000   0.000000
   18  C  1 XZ    0.000000   0.000000   0.000000   0.007138   0.000000
   19  C  1 YZ    0.000000   0.000000   0.026903   0.000000   0.000000
   20  C  1 XX   -0.499710   0.000000   0.000000   0.000000  -0.561615
   21  C  1 YY   -0.312759   0.000000   0.000000   0.000000   0.516951
   22  C  1 ZZ    0.812469   0.000000   0.000000   0.000000   0.044664
   23  C  1 XY    0.000000   0.123935   0.000000   0.000000   0.000000
   24  C  1 XZ    0.000000   0.000000   0.000000   0.389347   0.000000
   25  C  1 YZ    0.000000   0.000000  -0.951740   0.000000   0.000000
   26  C  1 XXX   0.000000   0.000000   0.000000  -0.002955   0.000000
   27  C  1 YYY   0.000000   0.000000   0.010103   0.000000   0.000000
   28  C  1 ZZZ   0.071242   0.000000   0.000000   0.000000   0.015910
   29  C  1 XXY   0.000000   0.000000  -0.032240   0.000000   0.000000
   30  C  1 XXZ  -0.049930   0.000000   0.000000   0.000000   0.019861
   31  C  1 YYX   0.000000   0.000000   0.000000   0.016645   0.000000
   32  C  1 YYZ  -0.045651   0.000000   0.000000   0.000000  -0.041206
   33  C  1 ZZX   0.000000   0.000000   0.000000  -0.012680   0.000000
   34  C  1 ZZY   0.000000   0.000000   0.018685   0.000000   0.000000
   35  C  1 XYZ   0.000000   0.030880   0.000000   0.000000   0.000000
   36  C  2  S   -0.012193   0.000000   0.000000   0.000000  -0.020640
   37  C  2  S    0.166159   0.000000   0.000000   0.000000  -0.013531
   38  C  2  S    0.118594   0.000000   0.000000   0.000000  -0.071139
   39  C  2  S   -8.941357   0.000000   0.000000   0.000000   1.414945
   40  C  2  X    0.000000   0.000000   0.000000  -0.022279   0.000000
   41  C  2  Y    0.000000   0.000000  -0.121923   0.000000   0.000000
   42  C  2  Z   -0.251605   0.000000   0.000000   0.000000   0.066663
   43  C  2  X    0.000000   0.000000   0.000000  -0.124126   0.000000
   44  C  2  Y    0.000000   0.000000  -0.446687   0.000000   0.000000
   45  C  2  Z    0.432260   0.000000   0.000000   0.000000   0.162676
   46  C  2  X    0.000000   0.000000   0.000000   0.267308   0.000000
   47  C  2  Y    0.000000   0.000000  -3.779167   0.000000   0.000000
   48  C  2  Z    4.909730   0.000000   0.000000   0.000000   0.996213
   49  C  2 XX    0.010964   0.000000   0.000000   0.000000   0.015878
   50  C  2 YY    0.040370   0.000000   0.000000   0.000000  -0.000337
   51  C  2 ZZ   -0.051333   0.000000   0.000000   0.000000  -0.015541
   52  C  2 XY    0.000000  -0.006912   0.000000   0.000000   0.000000
   53  C  2 XZ    0.000000   0.000000   0.000000  -0.007138   0.000000
   54  C  2 YZ    0.000000   0.000000   0.026903   0.000000   0.000000
   55  C  2 XX    0.499710   0.000000   0.000000   0.000000  -0.561615
   56  C  2 YY    0.312759   0.000000   0.000000   0.000000   0.516951
   57  C  2 ZZ   -0.812469   0.000000   0.000000   0.000000   0.044664
   58  C  2 XY    0.000000  -0.123935   0.000000   0.000000   0.000000
   59  C  2 XZ    0.000000   0.000000   0.000000  -0.389347   0.000000
   60  C  2 YZ    0.000000   0.000000  -0.951740   0.000000   0.000000
   61  C  2 XXX   0.000000   0.000000   0.000000  -0.002955   0.000000
   62  C  2 YYY   0.000000   0.000000  -0.010103   0.000000   0.000000
   63  C  2 ZZZ   0.071242   0.000000   0.000000   0.000000  -0.015910
   64  C  2 XXY   0.000000   0.000000   0.032240   0.000000   0.000000
   65  C  2 XXZ  -0.049930   0.000000   0.000000   0.000000  -0.019861
   66  C  2 YYX   0.000000   0.000000   0.000000   0.016645   0.000000
   67  C  2 YYZ  -0.045651   0.000000   0.000000   0.000000   0.041206
   68  C  2 ZZX   0.000000   0.000000   0.000000  -0.012680   0.000000
   69  C  2 ZZY   0.000000   0.000000  -0.018685   0.000000   0.000000
   70  C  2 XYZ   0.000000   0.030880   0.000000   0.000000   0.000000
   71  H  3  S    0.008846   0.000000  -0.042139   0.000000  -0.020412
   72  H  3  S    0.371648   0.000000  -1.972671   0.000000  -0.877701
   73  H  3  S   -0.777522   0.000000  -0.875976   0.000000  -0.192180
   74  H  3  X    0.000000  -0.035562   0.000000   0.027094   0.000000
   75  H  3  Y    0.009578   0.000000  -0.018344   0.000000  -0.016882
   76  H  3  Z    0.008660   0.000000   0.022127   0.000000   0.041740
   77  H  3  X    0.000000   0.493972   0.000000  -0.345627   0.000000
   78  H  3  Y   -0.108429   0.000000  -0.284046   0.000000  -0.021385
   79  H  3  Z   -0.209339   0.000000  -0.224162   0.000000  -0.348393
   80  H  3 XX   -0.000049   0.000000  -0.002284   0.000000  -0.001953
   81  H  3 YY   -0.007577   0.000000  -0.020239   0.000000  -0.000508
   82  H  3 ZZ    0.007626   0.000000   0.022523   0.000000   0.002461
   83  H  3 XY    0.000000   0.008819   0.000000  -0.001815   0.000000
   84  H  3 XZ    0.000000  -0.005114   0.000000  -0.005279   0.000000
   85  H  3 YZ    0.001361   0.000000  -0.000601   0.000000   0.002597
   86  H  4  S   -0.008846   0.000000  -0.042139   0.000000  -0.020412
   87  H  4  S   -0.371648   0.000000  -1.972671   0.000000  -0.877701
   88  H  4  S    0.777522   0.000000  -0.875976   0.000000  -0.192180
   89  H  4  X    0.000000  -0.035562   0.000000   0.027094   0.000000
   90  H  4  Y    0.009578   0.000000   0.018344   0.000000   0.016882
   91  H  4  Z    0.008660   0.000000  -0.022127   0.000000  -0.041740
   92  H  4  X    0.000000   0.493972   0.000000  -0.345627   0.000000
   93  H  4  Y   -0.108429   0.000000   0.284046   0.000000   0.021385
   94  H  4  Z   -0.209339   0.000000   0.224162   0.000000   0.348393
   95  H  4 XX    0.000049   0.000000  -0.002284   0.000000  -0.001953
   96  H  4 YY    0.007577   0.000000  -0.020239   0.000000  -0.000508
   97  H  4 ZZ   -0.007626   0.000000   0.022523   0.000000   0.002461
   98  H  4 XY    0.000000  -0.008819   0.000000   0.001815   0.000000
   99  H  4 XZ    0.000000   0.005114   0.000000   0.005279   0.000000
  100  H  4 YZ   -0.001361   0.000000  -0.000601   0.000000   0.002597
  101  H  5  S   -0.008846   0.000000   0.042139   0.000000  -0.020412
  102  H  5  S   -0.371648   0.000000   1.972671   0.000000  -0.877701
  103  H  5  S    0.777522   0.000000   0.875976   0.000000  -0.192180
  104  H  5  X    0.000000   0.035562   0.000000   0.027094   0.000000
  105  H  5  Y   -0.009578   0.000000   0.018344   0.000000  -0.016882
  106  H  5  Z    0.008660   0.000000   0.022127   0.000000  -0.041740
  107  H  5  X    0.000000  -0.493972   0.000000  -0.345627   0.000000
  108  H  5  Y    0.108429   0.000000   0.284046   0.000000  -0.021385
  109  H  5  Z   -0.209339   0.000000  -0.224162   0.000000   0.348393
  110  H  5 XX    0.000049   0.000000   0.002284   0.000000  -0.001953
  111  H  5 YY    0.007577   0.000000   0.020239   0.000000  -0.000508
  112  H  5 ZZ   -0.007626   0.000000  -0.022523   0.000000   0.002461
  113  H  5 XY    0.000000  -0.008819   0.000000  -0.001815   0.000000
  114  H  5 XZ    0.000000  -0.005114   0.000000   0.005279   0.000000
  115  H  5 YZ    0.001361   0.000000  -0.000601   0.000000  -0.002597
  116  H  6  S    0.008846   0.000000   0.042139   0.000000  -0.020412
  117  H  6  S    0.371648   0.000000   1.972671   0.000000  -0.877701
  118  H  6  S   -0.777522   0.000000   0.875976   0.000000  -0.192180
  119  H  6  X    0.000000   0.035562   0.000000   0.027094   0.000000
  120  H  6  Y   -0.009578   0.000000  -0.018344   0.000000   0.016882
  121  H  6  Z    0.008660   0.000000  -0.022127   0.000000   0.041740
  122  H  6  X    0.000000  -0.493972   0.000000  -0.345627   0.000000
  123  H  6  Y    0.108429   0.000000  -0.284046   0.000000   0.021385
  124  H  6  Z   -0.209339   0.000000   0.224162   0.000000  -0.348393
  125  H  6 XX   -0.000049   0.000000   0.002284   0.000000  -0.001953
  126  H  6 YY   -0.007577   0.000000   0.020239   0.000000  -0.000508
  127  H  6 ZZ    0.007626   0.000000  -0.022523   0.000000   0.002461
  128  H  6 XY    0.000000   0.008819   0.000000   0.001815   0.000000
  129  H  6 XZ    0.000000   0.005114   0.000000  -0.005279   0.000000
  130  H  6 YZ   -0.001361   0.000000  -0.000601   0.000000  -0.002597

                     31         32         33         34         35
                    1.0805     1.0982     1.1830     1.2135     1.2217
                     B3G        B2U        B2G        AG         B1G 
    1  C  1  S    0.000000   0.000000   0.000000  -0.105046   0.000000
    2  C  1  S    0.000000   0.000000   0.000000  -0.244853   0.000000
    3  C  1  S    0.000000   0.000000   0.000000  -0.192115   0.000000
    4  C  1  S    0.000000   0.000000   0.000000   1.400800   0.000000
    5  C  1  X    0.000000   0.000000   0.111772   0.000000   0.000000
    6  C  1  Y    0.079952   0.059962   0.000000   0.000000   0.000000
    7  C  1  Z    0.000000   0.000000   0.000000   0.095682   0.000000
    8  C  1  X    0.000000   0.000000   0.449535   0.000000   0.000000
    9  C  1  Y   -0.291974   1.101285   0.000000   0.000000   0.000000
   10  C  1  Z    0.000000   0.000000   0.000000  -0.875740   0.000000
   11  C  1  X    0.000000   0.000000   1.001589   0.000000   0.000000
   12  C  1  Y    2.726239   1.393800   0.000000   0.000000   0.000000
   13  C  1  Z    0.000000   0.000000   0.000000   1.047437   0.000000
   14  C  1 XX    0.000000   0.000000   0.000000  -0.003993   0.000000
   15  C  1 YY    0.000000   0.000000   0.000000   0.045124   0.000000
   16  C  1 ZZ    0.000000   0.000000   0.000000  -0.041131   0.000000
   17  C  1 XY    0.000000   0.000000   0.000000   0.000000  -0.008734
   18  C  1 XZ    0.000000   0.000000  -0.004627   0.000000   0.000000
   19  C  1 YZ   -0.013673  -0.004910   0.000000   0.000000   0.000000
   20  C  1 XX    0.000000   0.000000   0.000000  -0.975782   0.000000
   21  C  1 YY    0.000000   0.000000   0.000000   0.070583   0.000000
   22  C  1 ZZ    0.000000   0.000000   0.000000   0.905200   0.000000
[...]
    3 HYDROGEN         0.000000000      -0.000000769       0.000000782
    4 HYDROGEN         0.000000000       0.000000769      -0.000000782
    5 HYDROGEN         0.000000000      -0.000000769      -0.000000782
    6 HYDROGEN         0.000000000       0.000000769       0.000000782

          -------------------------------
          CARTESIAN FORCE CONSTANT MATRIX
          -------------------------------

                                   1                          2
                               CARBON                     CARBON    
                          X        Y        Z        X        Y        Z
  1   CARBON       X 0.107556 0.000000 0.000000-0.044444 0.000000 0.000000
                   Y 0.000000 0.657687 0.000000 0.000000-0.112708 0.000000
                   Z 0.000000 0.000000 0.854427 0.000000 0.000000-0.564443
  2   CARBON       X-0.044444 0.000000 0.000000 0.107556 0.000000 0.000000
                   Y 0.000000-0.112708 0.000000 0.000000 0.657687 0.000000
                   Z 0.000000 0.000000-0.564443 0.000000 0.000000 0.854427
  3   HYDROGEN     X 0.004832 0.000000 0.000000-0.036388 0.000000 0.000000
                   Y 0.000000 0.003521-0.004338 0.000000-0.276013 0.129971
                   Z 0.000000 0.030377-0.012532 0.000000 0.124334-0.132459
  4   HYDROGEN     X-0.036388 0.000000 0.000000 0.004832 0.000000 0.000000
                   Y 0.000000-0.276013 0.129971 0.000000 0.003521-0.004338
                   Z 0.000000 0.124334-0.132459 0.000000 0.030377-0.012532
  5   HYDROGEN     X-0.036388 0.000000 0.000000 0.004832 0.000000 0.000000
                   Y 0.000000-0.276013-0.129971 0.000000 0.003521 0.004338
                   Z 0.000000-0.124334-0.132459 0.000000-0.030377-0.012532
  6   HYDROGEN     X 0.004832 0.000000 0.000000-0.036388 0.000000 0.000000
                   Y 0.000000 0.003521 0.004338 0.000000-0.276013-0.129971
                   Z 0.000000-0.030377-0.012532 0.000000-0.124334-0.132459

                                   3                          4
                               HYDROGEN                   HYDROGEN  
                          X        Y        Z        X        Y        Z
  3   HYDROGEN     X 0.024521 0.000000 0.000000 0.013337 0.000000 0.000000
                   Y 0.000000 0.284672-0.139395 0.000000 0.001692-0.000777
                   Z 0.000000-0.139395 0.138658 0.000000-0.000777-0.005249
  4   HYDROGEN     X 0.013337 0.000000 0.000000 0.024521 0.000000 0.000000
                   Y 0.000000 0.001692-0.000777 0.000000 0.284672-0.139395
                   Z 0.000000-0.000777-0.005249 0.000000-0.139395 0.138658
  5   HYDROGEN     X-0.008742 0.000000 0.000000 0.002441 0.000000 0.000000
                   Y 0.000000 0.001354-0.000206 0.000000-0.015223-0.014333
                   Z 0.000000 0.000206 0.001547 0.000000 0.014333 0.010036
  6   HYDROGEN     X 0.002441 0.000000 0.000000-0.008742 0.000000 0.000000
                   Y 0.000000-0.015223-0.014333 0.000000 0.001354-0.000206
                   Z 0.000000 0.014333 0.010036 0.000000 0.000206 0.001547

                                   5                          6
                               HYDROGEN                   HYDROGEN  
                          X        Y        Z        X        Y        Z
  5   HYDROGEN     X 0.024521 0.000000 0.000000 0.013337 0.000000 0.000000
                   Y 0.000000 0.284672 0.139395 0.000000 0.001692 0.000777
                   Z 0.000000 0.139395 0.138658 0.000000 0.000777-0.005249
  6   HYDROGEN     X 0.013337 0.000000 0.000000 0.024521 0.000000 0.000000
                   Y 0.000000 0.001692 0.000777 0.000000 0.284672 0.139395
                   Z 0.000000 0.000777-0.005249 0.000000 0.139395 0.138658

          ------------------------          ----------------
          DIPOLE DERIVATIVE TENSOR          (DEBYE/ANGSTROM)
          ------------------------          ----------------

        ATOM                 MU-X           MU-Y           MU-Z
     CARBON     D/DX    -1.371882710    0.000000000    0.000000000
                D/DY     0.000000000    0.445151988    0.000000000
                D/DZ     0.000000000   -0.000000003   -0.125316000
     CARBON     D/DX    -1.371882710    0.000000000    0.000000000
                D/DY     0.000000000    0.445151988    0.000000000
                D/DZ     0.000000000    0.000000003   -0.125316000
     HYDROGEN   D/DX     0.685920861    0.000000000   -0.000000001
                D/DY     0.000000000   -0.222725632    0.323833184
                D/DZ     0.000000000    0.168404838    0.062978302
     HYDROGEN   D/DX     0.685920861    0.000000000   -0.000000001
                D/DY     0.000000000   -0.222725632    0.323833184
                D/DZ     0.000000000    0.168404838    0.062978302
     HYDROGEN   D/DX     0.685920861    0.000000000    0.000000001
                D/DY     0.000000000   -0.222725632   -0.323833184
                D/DZ     0.000000000   -0.168404838    0.062978302
     HYDROGEN   D/DX     0.685920861    0.000000000    0.000000001
                D/DY     0.000000000   -0.222725632   -0.323833184
                D/DZ     0.000000000   -0.168404838    0.062978302

          --------------------------------------------------------
          NORMAL COORDINATE ANALYSIS IN THE HARMONIC APPROXIMATION
          --------------------------------------------------------

          ATOMIC WEIGHTS (AMU)

    1     CARBON           12.00000
    2     CARBON           12.00000
    3     HYDROGEN          1.00782
    4     HYDROGEN          1.00782
    5     HYDROGEN          1.00782
    6     HYDROGEN          1.00782

 MODES 1 TO 6 ARE TAKEN AS ROTATIONS AND TRANSLATIONS.

 ANALYZING SYMMETRY OF NORMAL MODES...

 --- SYMMETRY FOR NORMAL MODES ---
 INCLUDING TRANSLATION AND ROTATION
    3*AG     1*AU     4*B3U    3*B3G    1*B1G    4*B1U    5*B2U    2*B2G 
 EXCLUDING TRANSLATION AND ROTATION (SAYVETZ < 0.01)
    3*AG     1*AU     1*B3U    2*B3G    0*B1G    2*B1U    2*B2U    1*B2G 

     FREQUENCIES IN CM**-1, IR INTENSITIES IN DEBYE**2/AMU-ANGSTROM**2,
     REDUCED MASSES IN AMU.

                          1           2           3           4           5
       FREQUENCY:         9.88        0.01        0.01        0.00        1.96  
        SYMMETRY:         B3G         B2U         B2U         B2U         B1G 
    REDUCED MASS:      1.95199     4.67189     4.67198     4.67196     1.00783
    IR INTENSITY:      0.00000     0.00000     0.00000     0.00000     0.00000

  1   CARBON       X -0.00000019 -0.03935514  0.07336066  0.16954030  0.00000013
                   Y  0.14832965 -0.07262569  0.15324292 -0.08316731  0.00000000
                   Z -0.00000001  0.16985608  0.08251915  0.00372213  0.00000000
  2   CARBON       X  0.00000041 -0.03935515  0.07336064  0.16954030  0.00000012
                   Y -0.14832959 -0.07262576  0.15324302 -0.08316718  0.00000000
                   Z -0.00000001  0.16985608  0.08251915  0.00372213  0.00000000
  3   HYDROGEN     X  0.00000066 -0.03935462  0.07335965  0.16953804  0.49805528
                   Y -0.27351137 -0.07262319  0.15323903 -0.08316477  0.00000000
                   Z -0.20558541  0.16985909  0.08251507  0.00372473  0.00000000
  4   HYDROGEN     X -0.00000044 -0.03935474  0.07335995  0.16953863 -0.49805502
                   Y  0.27351143 -0.07262307  0.15323884 -0.08316502  0.00000000
                   Z  0.20558540  0.16985918  0.08251493  0.00372455  0.00000000
  5   HYDROGEN     X -0.00000044 -0.03935460  0.07335969  0.16953803  0.49805529
                   Y  0.27351143 -0.07262418  0.15323830 -0.08316504  0.00000000
                   Z -0.20558541  0.16985475  0.08252424  0.00371976  0.00000000
  6   HYDROGEN     X  0.00000066 -0.03935476  0.07335991  0.16953864 -0.49805504
                   Y -0.27351137 -0.07262430  0.15323849 -0.08316480  0.00000000
                   Z  0.20558540  0.16985484  0.08252409  0.00371957  0.00000000

 TRANS. SAYVETZ    X  0.00000311 -1.10317391  2.05639098  4.75242711  0.00000354
                   Y  0.00000091 -2.03578522  4.29558239 -2.33127657  0.00000000
                   Z -0.00000021  4.76129036  2.31312085  0.10433626  0.00000000
               TOTAL  0.00000325  5.29445937  5.29445937  5.29445937  0.00000354

   ROT. SAYVETZ    X  8.48427616  0.00000191 -0.00000297 -0.00000382  0.00000000
                   Y  0.00001410 -0.00000026 -0.00000054  0.00000008 -0.00000018
                   Z  0.00000000  0.00000049 -0.00000091 -0.00000210  3.50135578
               TOTAL  8.48427616  0.00000199  0.00000315  0.00000436  3.50135578

                          6           7           8           9          10
       FREQUENCY:         9.85      827.72      959.72      983.05     1076.02  
        SYMMETRY:         B2G         B2U         B2G         B3U         AU  
    REDUCED MASS:      2.41798     1.04168     1.51057     1.16073     1.00783
    IR INTENSITY:      0.00000     0.00281     0.00000     2.18101     0.00000

  1   CARBON       X -0.16287352  0.00000000  0.12304016 -0.07740892  0.00000000
                   Y -0.00000026 -0.03844945  0.00000000  0.00000000  0.00000000
                   Z  0.00000001  0.00000000  0.00000000  0.00000000  0.00000000
  2   CARBON       X  0.16287353  0.00000000 -0.12304016 -0.07740892  0.00000000
                   Y  0.00000028 -0.03844945  0.00000000  0.00000000  0.00000000
                   Z  0.00000001  0.00000000  0.00000000  0.00000000  0.00000000
  3   HYDROGEN     X  0.30021333  0.00000000  0.39740521  0.46085273  0.49805516
                   Y  0.00000051  0.22892485  0.00000000  0.00000000  0.00000000
                   Z  0.00000039  0.43226272  0.00000000  0.00000000  0.00000000
  4   HYDROGEN     X -0.30021333  0.00000000 -0.39740521  0.46085273  0.49805516
                   Y -0.00000049  0.22892485  0.00000000  0.00000000  0.00000000
                   Z -0.00000036  0.43226272  0.00000000  0.00000000  0.00000000
  5   HYDROGEN     X -0.30021331  0.00000000 -0.39740521  0.46085273 -0.49805516
                   Y -0.00000049  0.22892485  0.00000000  0.00000000  0.00000000
                   Z  0.00000039 -0.43226272  0.00000000  0.00000000  0.00000000
  6   HYDROGEN     X  0.30021331  0.00000000  0.39740521  0.46085273 -0.49805516
                   Y  0.00000051  0.22892485  0.00000000  0.00000000  0.00000000
                   Z -0.00000036 -0.43226272  0.00000000  0.00000000  0.00000000

 TRANS. SAYVETZ    X  0.00000006  0.00000000  0.00000000  0.00002157  0.00000000
                   Y  0.00000025  0.00007805  0.00000000  0.00000000  0.00000000
                   Z  0.00000032  0.00000000  0.00000000  0.00000000  0.00000000
               TOTAL  0.00000041  0.00007805  0.00000000  0.00002157  0.00000000

   ROT. SAYVETZ    X -0.00001548  0.00000000  0.00000000  0.00000000  0.00000000
                   Y  7.72809483  0.00000000  0.00090523  0.00000000  0.00000000
                   Z  0.00000008  0.00000000  0.00000000  0.00000000  0.00000000
               TOTAL  7.72809483  0.00000000  0.00090523  0.00000000  0.00000000

                         11          12          13          14          15
       FREQUENCY:      1246.58     1384.06     1484.63     1684.14     3179.30  
        SYMMETRY:         B3G         AG          B1U         AG          B1U 
    REDUCED MASS:      1.51697     1.26528     1.11297     2.89147     1.04684
    IR INTENSITY:      0.00000     0.00000     0.20966     0.00000     0.22492

  1   CARBON       X  0.00000000  0.00000000  0.00000000  0.00000000  0.00000000
                   Y  0.12355930  0.00000000  0.00000000  0.00000000  0.00000000
                   Z  0.00000000  0.09620491 -0.06555214  0.17214059 -0.04117317
  2   CARBON       X  0.00000000  0.00000000  0.00000000  0.00000000  0.00000000
                   Y -0.12355930  0.00000000  0.00000000  0.00000000  0.00000000
                   Z  0.00000000 -0.09620491 -0.06555214 -0.17214059 -0.04117317
  3   HYDROGEN     X  0.00000000  0.00000000  0.00000000  0.00000000  0.00000000
                   Y  0.11338654 -0.16639831  0.26490894  0.21999038 -0.42176082
                   Z  0.37988452 -0.40653339  0.39025616  0.15247728  0.24512107
  4   HYDROGEN     X  0.00000000  0.00000000  0.00000000  0.00000000  0.00000000
                   Y -0.11338654  0.16639831  0.26490894 -0.21999038 -0.42176082
                   Z -0.37988452  0.40653339  0.39025616 -0.15247728  0.24512107
  5   HYDROGEN     X  0.00000000  0.00000000  0.00000000  0.00000000  0.00000000
                   Y -0.11338654 -0.16639831 -0.26490894  0.21999038  0.42176082
                   Z  0.37988452  0.40653339  0.39025616 -0.15247728  0.24512107
  6   HYDROGEN     X  0.00000000  0.00000000  0.00000000  0.00000000  0.00000000
                   Y  0.11338654  0.16639831 -0.26490894 -0.21999038  0.42176082
                   Z -0.37988452 -0.40653339  0.39025616  0.15247728  0.24512107

 TRANS. SAYVETZ    X  0.00000000  0.00000000  0.00000000  0.00000000  0.00000000
                   Y  0.00000000  0.00000000  0.00000000  0.00000000  0.00000000
                   Z  0.00000000  0.00000000 -0.00001168  0.00000000  0.00000042
               TOTAL  0.00000000  0.00000000  0.00001168  0.00000000  0.00000042

   ROT. SAYVETZ    X  0.00098389  0.00000000  0.00000000  0.00000000  0.00000000
                   Y  0.00000000  0.00000000  0.00000000  0.00000000  0.00000000
                   Z  0.00000000  0.00000000  0.00000000  0.00000000  0.00000000
               TOTAL  0.00098389  0.00000000  0.00000000  0.00000000  0.00000000

                         16          17          18
       FREQUENCY:      3197.26     3267.74     3294.52  
        SYMMETRY:         AG          B3G         B2U 
    REDUCED MASS:      1.07340     1.11570     1.11885
    IR INTENSITY:      0.00000     0.00000     0.33966

  1   CARBON       X  0.00000000  0.00000000  0.00000000
                   Y  0.00000000 -0.06631811 -0.06718342
                   Z -0.05271527  0.00000000  0.00000000
  2   CARBON       X  0.00000000  0.00000000  0.00000000
                   Y  0.00000000  0.06631811 -0.06718342
                   Z  0.05271527  0.00000000  0.00000000
  3   HYDROGEN     X  0.00000000  0.00000000  0.00000000
                   Y  0.41469841 -0.40049213  0.39997457
                   Z -0.24400865  0.24795430 -0.24740226
  4   HYDROGEN     X  0.00000000  0.00000000  0.00000000
                   Y -0.41469841  0.40049213  0.39997457
                   Z  0.24400865 -0.24795430 -0.24740226
  5   HYDROGEN     X  0.00000000  0.00000000  0.00000000
                   Y  0.41469841  0.40049213  0.39997457
                   Z  0.24400865  0.24795430  0.24740226
  6   HYDROGEN     X  0.00000000  0.00000000  0.00000000
                   Y -0.41469841 -0.40049213  0.39997457
                   Z -0.24400865 -0.24795430  0.24740226

 TRANS. SAYVETZ    X  0.00000000  0.00000000  0.00000000
                   Y  0.00000000  0.00000000  0.00001546
                   Z  0.00000000  0.00000000  0.00000000
               TOTAL  0.00000000  0.00000000  0.00001546

   ROT. SAYVETZ    X  0.00000000  0.00000511  0.00000000
                   Y  0.00000000  0.00000000  0.00000000
                   Z  0.00000000  0.00000000  0.00000000
               TOTAL  0.00000000  0.00000511  0.00000000

 REFERENCE ON SAYVETZ CONDITIONS - A. SAYVETZ, J.CHEM.PHYS., 7, 383-389(1939).

 NOTE - THE MODES J,K ARE ORTHONORMALIZED ACCORDING TO
 SUM ON I   M(I) * (X(I,J)*X(I,K) + Y(I,J)*Y(I,K) + Z(I,J)*Z(I,K)) = DELTA(J,K)

  MODE FREQ(CM**-1)  SYMMETRY  RED. MASS  IR INTENS.
     1       9.880    B3G      1.951986    0.000000
     2       0.012    B2U      4.671886    0.000000
     3       0.011    B2U      4.671977    0.000000
     4       0.003    B2U      4.671956    0.000000
     5       1.963    B1G      1.007825    0.000000
     6       9.853    B2G      2.417984    0.000000
     7     827.721    B2U      1.041680    0.002809
     8     959.715    B2G      1.510571    0.000000
     9     983.047    B3U      1.160732    2.181015
    10    1076.021    AU       1.007825    0.000000
    11    1246.583    B3G      1.516970    0.000000
    12    1384.059    AG       1.265275    0.000000
    13    1484.632    B1U      1.112965    0.209659
    14    1684.142    AG       2.891468    0.000000
    15    3179.300    B1U      1.046839    0.224915
    16    3197.260    AG       1.073402    0.000000
    17    3267.737    B3G      1.115701    0.000000
    18    3294.519    B2U      1.118847    0.339664

     -------------------------------
     THERMOCHEMISTRY AT T=  298.15 K
     -------------------------------

 USING IDEAL GAS, RIGID ROTOR, HARMONIC NORMAL MODE APPROXIMATIONS.
 P=  1.01325E+05 PASCAL.
 ALL FREQUENCIES ARE SCALED BY   1.00000
 THE MOMENTS OF INERTIA ARE (IN AMU*BOHR**2)
     12.25949    59.72345    71.98294
 THE ROTATIONAL SYMMETRY NUMBER IS  4.0
 THE ROTATIONAL CONSTANTS ARE (IN GHZ)
    147.07691    30.19062    25.04883
 THE HARMONIC ZERO POINT ENERGY IS (SCALED BY   1.000)
        0.051452 HARTREE/MOLECULE    11292.367821 CM**-1/MOLECULE 
       32.286532 KCAL/MOL              135.086851 KJ/MOL

               Q               LN Q
 ELEC.     1.00000E+00       0.000000
 TRANS.    5.83336E+06      15.579103
 ROT.      6.49688E+02       6.476492
 VIB.      1.04861E+00       0.047468
 TOT.      3.97410E+09      22.103064

              E         H         G         CV        CP        S
           KJ/MOL    KJ/MOL    KJ/MOL   J/MOL-K   J/MOL-K   J/MOL-K
 ELEC.      0.000     0.000     0.000     0.000     0.000     0.000
 TRANS.     3.718     6.197   -38.620    12.472    20.786   150.317
 ROT.       3.718     3.718   -16.055    12.472    12.472    66.320
 VIB.     135.638   135.638   134.969     8.925     8.925     2.243
 TOTAL    143.075   145.554    80.295    33.868    42.182   218.880
 VIB. THERMAL CORRECTION E(T)-E(0) = H(T)-H(0) =   551.003 J/MOL

              E         H         G         CV        CP        S
         KCAL/MOL  KCAL/MOL  KCAL/MOL CAL/MOL-K CAL/MOL-K CAL/MOL-K
 ELEC.      0.000     0.000     0.000     0.000     0.000     0.000
 TRANS.     0.889     1.481    -9.230     2.981     4.968    35.927
 ROT.       0.889     0.889    -3.837     2.981     2.981    15.851
 VIB.      32.418    32.418    32.258     2.133     2.133     0.536
 TOTAL     34.196    34.788    19.191     8.095    10.082    52.313
 VIB. THERMAL CORRECTION E(T)-E(0) = H(T)-H(0) =   131.693 CAL/MOL
 ......END OF NORMAL COORDINATE ANALYSIS......
 CPU     0: STEP CPU TIME=     0.00 TOTAL CPU TIME=      530.4 (    8.8 MIN)
 TOTAL WALL CLOCK TIME=      530.4 SECONDS, CPU UTILIZATION IS 100.00%
                   754827  WORDS OF DYNAMIC MEMORY USED
 EXECUTION OF GAMESS TERMINATED NORMALLY Fri Aug 23 14:59:47 2019
 DDI: 2338880 bytes (2.2 MB / 0 MWords) used by master data server.

 ----------------------------------------
 CPU timing information for all processes
 ========================================
 0: 365.759944 + 19.156922 = 384.916866
 1: 305.917961 + 15.646900 = 321.564861
 2: 382.249250 + 19.874527 = 402.123777
 3: 308.211175 + 15.927702 = 324.138877
 4: 178.075141 + 16.692107 = 194.767248
 5: 115.097537 + 10.888869 = 125.986406
 6: 141.524107 + 13.384885 = 154.908992
 7: 132.039246 + 13.603287 = 145.642533
 ----------------------------------------
           Disk usage (in bytes)       
 ========================================
 ----------------------------------------
            Local date and time          
 ========================================
23.08.2019 - 14:59:53.35                          
