          ******************************************************
          *         GAMESS VERSION =  1 MAY 2013 (R1)          *
          *             FROM IOWA STATE UNIVERSITY             *
          * M.W.SCHMIDT, K.K.BALDRIDGE, J.A.BOATZ, S.T.ELBERT, *
          *   M.S.GORDON, J.H.JENSEN, S.KOSEKI, N.MATSUNAGA,   *
          *          K.A.NGUYEN, S.J.SU, T.L.WINDUS,           *
          *       TOGETHER WITH M.DUPUIS, J.A.MONTGOMERY       *
          *         J.COMPUT.CHEM.  14, 1347-1363(1993)        *
          *************** 64 BIT WINDOWS VERSION ***************

  SINCE 1993, STUDENTS AND POSTDOCS WORKING AT IOWA STATE UNIVERSITY
  AND ALSO IN THEIR VARIOUS JOBS AFTER LEAVING ISU HAVE MADE IMPORTANT
  CONTRIBUTIONS TO THE CODE:
     IVANA ADAMOVIC, CHRISTINE AIKENS, YURI ALEXEEV, POOJA ARORA,
     ANDREY ASADCHEV, ROB BELL, PRADIPTA BANDYOPADHYAY, JONATHAN BENTZ,
     BRETT BODE, GALINA CHABAN, WEI CHEN, CHEOL HO CHOI, PAUL DAY,
     ALBERT DEFUSCO, TIM DUDLEY, DMITRI FEDOROV, GRAHAM FLETCHER,
     MARK FREITAG, KURT GLAESEMANN, DAN KEMP, GRANT MERRILL,
     NORIYUKI MINEZAWA, JONATHAN MULLIN, TAKESHI NAGATA,
     SEAN NEDD, HEATHER NETZLOFF, BOSILJKA NJEGIC, RYAN OLSON, MIKE PAK,
     JIM SHOEMAKER, LYUDMILA SLIPCHENKO, SAROM SOK, JIE SONG,
     TETSUYA TAKETSUGU, SIMON WEBB, SOOHAENG YOO, FEDERICO ZAHARIEV

  ADDITIONAL CODE HAS BEEN PROVIDED BY COLLABORATORS IN OTHER GROUPS:
     IOWA STATE UNIVERSITY:
          JOE IVANIC, LAIMUTIS BYTAUTAS, KLAUS RUEDENBERG
     UNIVERSITY OF TOKYO: KIMIHIKO HIRAO, TAKAHITO NAKAJIMA,
          TAKAO TSUNEDA, MUNEAKI KAMIYA, SUSUMU YANAGISAWA,
          KIYOSHI YAGI, MAHITO CHIBA, SEIKEN TOKURA, NAOAKI KAWAKAMI
     UNIVERSITY OF AARHUS: FRANK JENSEN
     UNIVERSITY OF IOWA: VISVALDAS KAIRYS, HUI LI
     NATIONAL INST. OF STANDARDS AND TECHNOLOGY: WALT STEVENS, DAVID GARMER
     UNIVERSITY OF PISA: BENEDETTA MENNUCCI, JACOPO TOMASI
     UNIVERSITY OF MEMPHIS: HENRY KURTZ, PRAKASHAN KORAMBATH
     UNIVERSITY OF ALBERTA: TOBY ZENG, MARIUSZ KLOBUKOWSKI
     UNIVERSITY OF NEW ENGLAND: MARK SPACKMAN
     MIE UNIVERSITY: HIROAKI UMEDA
     MICHIGAN STATE UNIVERSITY:
          KAROL KOWALSKI, MARTA WLOCH, JEFFREY GOUR, JESSE LUTZ,
          WEI LI, PIOTR PIECUCH
     UNIVERSITY OF SILESIA: MONIKA MUSIAL, STANISLAW KUCHARSKI
     FACULTES UNIVERSITAIRES NOTRE-DAME DE LA PAIX:
          OLIVIER QUINET, BENOIT CHAMPAGNE
     UNIVERSITY OF CALIFORNIA - SANTA BARBARA: BERNARD KIRTMAN
     INSTITUTE FOR MOLECULAR SCIENCE:
          KAZUYA ISHIMURA, MICHIO KATOUDA, AND SHIGERU NAGASE
     UNIVERSITY OF NOTRE DAME: DAN CHIPMAN
     KYUSHU UNIVERSITY:
          HARUYUKI NAKANO,
          FENG LONG GU, JACEK KORCHOWIEC, MARCIN MAKOWSKI, AND YURIKO AOKI,
          HIROTOSHI MORI AND EISAKU MIYOSHI
     PENNSYLVANIA STATE UNIVERSITY:
          TZVETELIN IORDANOV, CHET SWALINA, JONATHAN SKONE,
          SHARON HAMMES-SCHIFFER
     WASEDA UNIVERSITY:
          MASATO KOBAYASHI, TOMOKO AKAMA, TSUGUKI TOUMA,
          TAKESHI YOSHIKAWA, YASUHIRO IKABATA, HIROMI NAKAI
     NANJING UNIVERSITY: SHUHUA LI
     UNIVERSITY OF NEBRASKA:
          PEIFENG SU, DEJUN SI, NANDUN THELLAMUREGE, YALI WANG, HUI LI
     UNIVERSITY OF ZURICH:
          ROBERTO PEVERATI, KIM BALDRIDGE
     N. COPERNICUS UNIVERSITY AND JACKSON STATE UNIVERSITY:
          MARIA BARYSZ


 PARALLEL VERSION RUNNING ON     4 PROCESSORS IN     4 NODES.

 EXECUTION OF GAMESS BEGUN Fri Aug 23 15:13:12 2019

            ECHO OF THE FIRST FEW INPUT CARDS -
 INPUT CARD> $CONTRL  RUNTYP=HESSIAN cctyp=ccsd(t)                                          
 INPUT CARD> ispher=+1                                                                      
 INPUT CARD>! numgrd=.t.                                                                    
 INPUT CARD>! exetyp=check                                                                  
 INPUT CARD> $END                                                                           
 INPUT CARD> $system TIMLIM=9000                                                            
 INPUT CARD> mwords=80 memddi=20 $end                                                       
 INPUT CARD> $BASIS  GBASIS=N31 NGAUSS=6 ndfunc=1 $END                                      
 INPUT CARD>! $BASIS  GBASIS=ccd $END                                                       
 INPUT CARD> $force method=fullnum $end                                                     
 INPUT CARD> $scf dirscf=.t. $end                                                           
 INPUT CARD>                                                                                
 INPUT CARD> $DATA                                                                          
 INPUT CARD> C2H4                                                                           
 INPUT CARD> dnh 2                                                                          
 INPUT CARD>                                                                                
 INPUT CARD> CARBON      6.0   0.0000000000   0.0000000000   0.6719175332                   
 INPUT CARD> HYDROGEN    1.0   0.0000000000   0.9264495427   1.2456676126                   
 INPUT CARD> $END                                                                           
 INPUT CARD>                                                                                
   80000000 WORDS OF MEMORY AVAILABLE

     BASIS OPTIONS
     -------------
     GBASIS=N31          IGAUSS=       6      POLAR=POPN31  
     NDFUNC=       1     NFFUNC=       0     DIFFSP=       F
     NPFUNC=       0      DIFFS=       F     BASNAM=        


     RUN TITLE
     ---------
  C2H4                                                                           

 THE POINT GROUP OF THE MOLECULE IS DNH     
 THE ORDER OF THE PRINCIPAL AXIS IS     2

 ATOM      ATOMIC                      COORDINATES (BOHR)
           CHARGE         X                   Y                   Z
 CARBON      6.0     0.0000000000        0.0000000000       -1.2697400241
 CARBON      6.0     0.0000000000        0.0000000000        1.2697400241
 HYDROGEN    1.0     0.0000000000       -1.7507357772        2.3539704596
 HYDROGEN    1.0     0.0000000000        1.7507357772       -2.3539704596
 HYDROGEN    1.0     0.0000000000       -1.7507357772       -2.3539704596
 HYDROGEN    1.0     0.0000000000        1.7507357772        2.3539704596

          INTERNUCLEAR DISTANCES (ANGS.)
          ------------------------------

                1 CARB       2 CARB       3 HYDR       4 HYDR       5 HYDR  

   1 CARB    0.0000000    1.3438351 *  2.1296576 *  1.0897238 *  1.0897238 *
   2 CARB    1.3438351 *  0.0000000    1.0897238 *  2.1296576 *  2.1296576 *
   3 HYDR    2.1296576 *  1.0897238 *  0.0000000    3.1048327    2.4913352 *
   4 HYDR    1.0897238 *  2.1296576 *  3.1048327    0.0000000    1.8528991 *
   5 HYDR    1.0897238 *  2.1296576 *  2.4913352 *  1.8528991 *  0.0000000  
   6 HYDR    2.1296576 *  1.0897238 *  1.8528991 *  2.4913352 *  3.1048327  

                6 HYDR  

   1 CARB    2.1296576 *
   2 CARB    1.0897238 *
   3 HYDR    1.8528991 *
   4 HYDR    2.4913352 *
   5 HYDR    3.1048327  
   6 HYDR    0.0000000  

  * ... LESS THAN  3.000


     ATOMIC BASIS SET
     ----------------
 THE CONTRACTED PRIMITIVE FUNCTIONS HAVE BEEN UNNORMALIZED
 THE CONTRACTED BASIS FUNCTIONS ARE NOW NORMALIZED TO UNITY

  SHELL TYPE  PRIMITIVE        EXPONENT          CONTRACTION COEFFICIENT(S)

 CARBON    

      5   S       1          3047.5248800    0.001834737132
      5   S       2           457.3695180    0.014037322813
      5   S       3           103.9486850    0.068842622264
      5   S       4            29.2101553    0.232184443216
      5   S       5             9.2866630    0.467941348435
      5   S       6             3.1639270    0.362311985337

      6   L       7             7.8682723   -0.119332419775    0.068999066591
      6   L       8             1.8812885   -0.160854151696    0.316423960957
      6   L       9             0.5442493    1.143456437840    0.744308290898

      7   L      10             0.1687145    1.000000000000    1.000000000000

      8   D      11             0.8000000    1.000000000000

 HYDROGEN  

     15   S      12            18.7311370    0.033494604338
     15   S      13             2.8253944    0.234726953484
     15   S      14             0.6401217    0.813757326146

     16   S      15             0.1612778    1.000000000000

 TOTAL NUMBER OF BASIS SET SHELLS             =   16
 NUMBER OF CARTESIAN GAUSSIAN BASIS FUNCTIONS =   38
 NOTE: THIS RUN WILL RESTRICT THE MO VARIATION SPACE TO SPHERICAL HARMONICS.
 THE NUMBER OF ORBITALS KEPT IN THE VARIATIONAL SPACE WILL BE PRINTED LATER.
 NUMBER OF ELECTRONS                          =   16
 CHARGE OF MOLECULE                           =    0
 SPIN MULTIPLICITY                            =    1
 NUMBER OF OCCUPIED ORBITALS (ALPHA)          =    8
 NUMBER OF OCCUPIED ORBITALS (BETA )          =    8
 TOTAL NUMBER OF ATOMS                        =    6
 THE NUCLEAR REPULSION ENERGY IS       33.1310879130

     $NEO OPTIONS
     ------------
     NUNIQN=       0     BASNUC=DZSNB        NEOSCF=NONE    
     NEOCI =NONE         NUMULT=       2     NUCST =       1
     NAUXNB=       0     VNUCEX=       F     NUCOPT=       T
     NTAUXB=       0     NEOHSS=       F     HSSINI=READH   
     HSSUPD=POWELLUP     DIRNUC=       F     SYMNUC=       F
     QMTOLN= 0.0E+00     USRDEX=       F
     POSNEO=       F     POSPRP=       F
     NEONCI=       F     LOCORB=       0

     $CONTRL OPTIONS
     ---------------
 SCFTYP=RHF          RUNTYP=HESSIAN      EXETYP=RUN     
 MPLEVL=       0     CITYP =NONE         CCTYP =CCSD(T)      VBTYP =NONE    
 DFTTYP=NONE         TDDFT =NONE    
 MULT  =       1     ICHARG=       0     NZVAR =       0     COORD =UNIQUE  
 PP    =NONE         RELWFN=NONE         LOCAL =NONE         NUMGRD=       F
 ISPHER=       1     NOSYM =       0     MAXIT =      30     UNITS =ANGS    
 PLTORB=       F     MOLPLT=       F     AIMPAC=       F     FRIEND=        
 NPRINT=       7     IREST =       0     GEOM  =INPUT   
 NORMF =       0     NORMP =       0     ITOL  =      20     ICUT  =       9
 INTTYP=BEST         GRDTYP=BEST         QMTTOL= 1.0E-06

     $SYSTEM OPTIONS
     ---------------
  REPLICATED MEMORY=    80000000 WORDS (ON EVERY NODE).
 DISTRIBUTED MEMDDI=          20 MILLION WORDS IN AGGREGATE,
 MEMDDI DISTRIBUTED OVER   4 PROCESSORS IS     5000000 WORDS/PROCESSOR.
 TOTAL MEMORY REQUESTED ON EACH PROCESSOR=    85000000 WORDS.
 TIMLIM=        9000.00 MINUTES, OR       6.3 DAYS.
 PARALL= T  BALTYP=  DLB     KDIAG=    0  COREFL= F
 MXSEQ2=     300 MXSEQ3=     150

          ----------------
          PROPERTIES INPUT
          ----------------

     MOMENTS            FIELD           POTENTIAL          DENSITY
 IEMOM =       1   IEFLD =       0   IEPOT =       0   IEDEN =       0
 WHERE =COMASS     WHERE =NUCLEI     WHERE =NUCLEI     WHERE =NUCLEI  
 OUTPUT=BOTH       OUTPUT=BOTH       OUTPUT=BOTH       OUTPUT=BOTH    
 IEMINT=       0   IEFINT=       0                     IEDINT=       0
                                                       MORB  =       0
          EXTRAPOLATION IN EFFECT
          SOSCF IN EFFECT
 ORBITAL PRINTING OPTION: NPREO=     1    38     2     1

     -------------------------------
     INTEGRAL TRANSFORMATION OPTIONS
     -------------------------------
     NWORD  =            0
     CUTOFF = 1.0E-09     MPTRAN =       0
     DIRTRF =       T     AOINTS =DUP     

          ----------------------
          INTEGRAL INPUT OPTIONS
          ----------------------
 NOPK  =       1 NORDER=       0 SCHWRZ=       T

     ------------------------------------------
     THE POINT GROUP IS DNH, NAXIS= 2, ORDER= 8
     ------------------------------------------

 -- VARIATIONAL SPACE WILL BE RESTRICTED TO PURE SPHERICAL HARMONICS ONLY --
 AFTER EXCLUDING CONTAMINANT COMBINATIONS FROM THE CARTESIAN GAUSSIAN BASIS
 SET, THE NUMBER OF SPHERICAL HARMONICS KEPT IN THE VARIATION SPACE IS   36

     DIMENSIONS OF THE SYMMETRY SUBSPACES ARE
 AG  =    9     AU  =    1     B3U =    3     B3G =    5     B1G =    1
 B1U =    9     B2U =    5     B2G =    3

 ..... DONE SETTING UP THE RUN .....
 CPU     0: STEP CPU TIME=     0.02 TOTAL CPU TIME=        0.0 (    0.0 MIN)
 TOTAL WALL CLOCK TIME=        0.0 SECONDS, CPU UTILIZATION IS 100.01%

     ---------------------------------
     HESSIAN MATRIX CONTROL PARAMETERS
     ---------------------------------
     METHOD=FULLNUM    NVIB  =       2   VIBSIZ= 0.01000
     RDHESS=       F   PURIFY=       F   PRTIFC=       F
     VIBANL=       T   DECOMP=       F   PROJCT=       F
     SCLFAC= 1.00000   PRTSCN=       F   NPRT  =       0
     PULCOR=       F   NPUN  =       0   REDOVB=       T
     THERMOCHEMISTRY WILL BE PRINTED FOR    1 TEMPERATURES:
      298.15000

          ********************
          1 ELECTRON INTEGRALS
          ********************
 ...... END OF ONE-ELECTRON INTEGRALS ......
 CPU     0: STEP CPU TIME=     0.00 TOTAL CPU TIME=        0.0 (    0.0 MIN)
 TOTAL WALL CLOCK TIME=        0.0 SECONDS, CPU UTILIZATION IS 100.01%

          -------------
          GUESS OPTIONS
          -------------
          GUESS =HUCKEL            NORB  =       0          NORDER=       0
          MIX   =       F          PRTMO =       F          PUNMO =       F
          TOLZ  = 1.0E-08          TOLE  = 1.0E-05
          SYMDEN=       F          PURIFY=       F

 INITIAL GUESS ORBITALS GENERATED BY HUCKEL   ROUTINE.
 HUCKEL GUESS REQUIRES     15624 WORDS.

 STATISTICS FOR GENERATION OF SYMMETRY ORBITAL -Q- MATRIX
 NUMBER OF CARTESIAN ATOMIC ORBITALS=         38
 NUMBER OF SPHERICAL CONTAMINANTS DROPPED=     2
 NUMBER OF LINEARLY DEPENDENT MOS DROPPED=     0
 TOTAL NUMBER OF MOS IN VARIATION SPACE=      36

 SYMMETRIES FOR INITIAL GUESS ORBITALS FOLLOW.   BOTH SET(S).
     8 ORBITALS ARE OCCUPIED (    2 CORE ORBITALS).
     3=AG       4=B1U      5=B2U      6=AG       7=B3G      8=B3U      9=B2G 
    10=B2U     11=B1U     12=B3G     13=AG      14=AG      15=AG      16=AG  
    17=AG      18=AG  
 ...... END OF INITIAL ORBITAL SELECTION ......
 CPU     0: STEP CPU TIME=     0.00 TOTAL CPU TIME=        0.0 (    0.0 MIN)
 TOTAL WALL CLOCK TIME=        0.0 SECONDS, CPU UTILIZATION IS 100.00%

                    ----------------------
                    AO INTEGRAL TECHNOLOGY
                    ----------------------
     S,P,L SHELL ROTATED AXIS INTEGRALS, REPROGRAMMED BY
        KAZUYA ISHIMURA (IMS) AND JOSE SIERRA (SYNSTAR).
     S,P,D,L SHELL ROTATED AXIS INTEGRALS PROGRAMMED BY
        KAZUYA ISHIMURA (INSTITUTE FOR MOLECULAR SCIENCE).
     S,P,D,F,G SHELL TO TOTAL QUARTET ANGULAR MOMENTUM SUM 5,
        ERIC PROGRAM BY GRAHAM FLETCHER (ELORET AND NASA ADVANCED
        SUPERCOMPUTING DIVISION, AMES RESEARCH CENTER).
     S,P,D,F,G,L SHELL GENERAL RYS QUADRATURE PROGRAMMED BY
        MICHEL DUPUIS (PACIFIC NORTHWEST NATIONAL LABORATORY).

          --------------------
          2 ELECTRON INTEGRALS
          --------------------

 DIRECT SCF METHOD SKIPS INTEGRAL STORAGE ON DISK.
 DIRECT TRANSFORMATION SKIPS AO INTEGRAL STORAGE ON DISK.
  ...... END OF TWO-ELECTRON INTEGRALS .....
 CPU     0: STEP CPU TIME=     0.03 TOTAL CPU TIME=        0.1 (    0.0 MIN)
 TOTAL WALL CLOCK TIME=        0.1 SECONDS, CPU UTILIZATION IS 100.00%

          --------------------------
                 RHF SCF CALCULATION
          --------------------------

     NUCLEAR ENERGY =        33.1310879130
     MAXIT =   30     NPUNCH=    2
     EXTRAP=T  DAMP=F  SHIFT=F  RSTRCT=F  DIIS=F  DEM=F  SOSCF=T
     DENSITY MATRIX CONV=  2.00E-06
     SOSCF WILL OPTIMIZE     224 ORBITAL ROTATIONS, SOGTOL=   0.250
     MEMORY REQUIRED FOR RHF ITERS=     57204 WORDS.

 DIRECT SCF CALCULATION, SCHWRZ=T   FDIFF=T,  DIRTHR=  0.00E+00 NITDIR=10
 SCHWARZ INEQUALITY OVERHEAD:       741 INTEGRALS, T=        0.00

                                                                                   NONZERO     BLOCKS
 ITER EX DEM     TOTAL ENERGY        E CHANGE  DENSITY CHANGE     ORB. GRAD      INTEGRALS    SKIPPED
   1  0  0      -77.8617194747   -77.8617194747   0.143541581   0.000000000          39817          2
          ---------------START SECOND ORDER SCF---------------
   2  1  0      -78.0198734572    -0.1581539824   0.055399245   0.055176684          39815          5
   3  2  0      -78.0287962121    -0.0089227550   0.013748706   0.013194824          39809         11
   4  3  0      -78.0298725811    -0.0010763689   0.002241980   0.001768014          39808         12
   5  4  0      -78.0298929744    -0.0000203933   0.000332441   0.000289103          39806         14
   6  5  0      -78.0298934264    -0.0000004520   0.000062364   0.000045489          39787         26
   7  6  0      -78.0298934402    -0.0000000138   0.000012382   0.000006156          39715         54
   8  7  0      -78.0298934406    -0.0000000004   0.000003770   0.000001632          39556        102
   9  8  0      -78.0298934407     0.0000000000   0.000000487   0.000000286          39328        167

 RHF HAS CONVERGED, NOW COMPUTING EXACT TOTAL FOCK MATRIX
 FOR USE DURING THE COUPLED CLUSTER CALCULATION THAT FOLLOWS.

          -----------------
          DENSITY CONVERGED
          -----------------
     TIME TO FORM FOCK OPERATORS=       0.0 SECONDS (       0.0 SEC/ITER)
     FOCK TIME ON FIRST ITERATION=       0.0, LAST ITERATION=       0.0
     TIME TO SOLVE SCF EQUATIONS=       0.0 SECONDS (       0.0 SEC/ITER)

 FINAL RHF ENERGY IS      -78.0298934407 AFTER   9 ITERATIONS

          ------------
          EIGENVECTORS
          ------------

                      1          2          3          4          5
                  -11.2297   -11.2281    -1.0233    -0.7875    -0.6334
                     AG         B1U        AG         B1U        B2U 
    1  C  1  S    0.704203   0.704550  -0.157158  -0.120816   0.000000
    2  C  1  S    0.016498   0.017765   0.301989   0.238117   0.000000
    3  C  1  X    0.000000   0.000000   0.000000   0.000000   0.000000
    4  C  1  Y    0.000000   0.000000   0.000000   0.000000   0.320029
    5  C  1  Z   -0.000266   0.000479   0.103363  -0.166936   0.000000
    6  C  1  S   -0.006649  -0.012851   0.236341   0.246142   0.000000
    7  C  1  X    0.000000   0.000000   0.000000   0.000000   0.000000
    8  C  1  Y    0.000000   0.000000   0.000000   0.000000   0.130315
    9  C  1  Z    0.000877  -0.001794   0.006298  -0.066252   0.000000
   10  C  1 XX   -0.000199  -0.000569  -0.015928  -0.015024   0.000000
   11  C  1 YY    0.000058  -0.000082   0.001646   0.019619   0.000000
   12  C  1 ZZ    0.000141   0.000651   0.014282  -0.004595   0.000000
   13  C  1 XY    0.000000   0.000000   0.000000   0.000000   0.000000
   14  C  1 XZ    0.000000   0.000000   0.000000   0.000000   0.000000
   15  C  1 YZ    0.000000   0.000000   0.000000   0.000000  -0.013644
   16  C  2  S    0.704203  -0.704550  -0.157158   0.120816   0.000000
   17  C  2  S    0.016498  -0.017765   0.301989  -0.238117   0.000000
   18  C  2  X    0.000000   0.000000   0.000000   0.000000   0.000000
   19  C  2  Y    0.000000   0.000000   0.000000   0.000000   0.320029
   20  C  2  Z    0.000266   0.000479  -0.103363  -0.166936   0.000000
   21  C  2  S   -0.006649   0.012851   0.236341  -0.246142   0.000000
   22  C  2  X    0.000000   0.000000   0.000000   0.000000   0.000000
   23  C  2  Y    0.000000   0.000000   0.000000   0.000000   0.130315
   24  C  2  Z   -0.000877  -0.001794  -0.006298  -0.066252   0.000000
   25  C  2 XX   -0.000199   0.000569  -0.015928   0.015024   0.000000
   26  C  2 YY    0.000058   0.000082   0.001646  -0.019619   0.000000
   27  C  2 ZZ    0.000141  -0.000651   0.014282   0.004595   0.000000
   28  C  2 XY    0.000000   0.000000   0.000000   0.000000   0.000000
   29  C  2 XZ    0.000000   0.000000   0.000000   0.000000   0.000000
   30  C  2 YZ    0.000000   0.000000   0.000000   0.000000   0.013644
   31  H  3  S   -0.000303   0.000133   0.082990  -0.145740  -0.157524
   32  H  3  S    0.001898  -0.001866   0.015728  -0.065361  -0.109858
   33  H  4  S   -0.000303  -0.000133   0.082990   0.145740   0.157524
   34  H  4  S    0.001898   0.001866   0.015728   0.065361   0.109858
   35  H  5  S   -0.000303  -0.000133   0.082990   0.145740  -0.157524
   36  H  5  S    0.001898   0.001866   0.015728   0.065361  -0.109858
   37  H  6  S   -0.000303   0.000133   0.082990  -0.145740   0.157524
   38  H  6  S    0.001898  -0.001866   0.015728  -0.065361   0.109858

                      6          7          8          9         10
                   -0.5803    -0.5023    -0.3685     0.1771     0.2636
                     AG         B3G        B3U        B2G        AG  
    1  C  1  S   -0.010819   0.000000   0.000000   0.000000  -0.077203
    2  C  1  S    0.022710   0.000000   0.000000   0.000000   0.076385
    3  C  1  X    0.000000   0.000000   0.373196   0.342956   0.000000
    4  C  1  Y    0.000000   0.302831   0.000000   0.000000   0.000000
    5  C  1  Z    0.405351   0.000000   0.000000   0.000000  -0.147544
    6  C  1  S   -0.018140   0.000000   0.000000   0.000000   1.460100
    7  C  1  X    0.000000   0.000000   0.308595   0.730014   0.000000
    8  C  1  Y    0.000000   0.196611   0.000000   0.000000   0.000000
    9  C  1  Z    0.157215   0.000000   0.000000   0.000000  -0.638840
   10  C  1 XX    0.006023   0.000000   0.000000   0.000000  -0.000673
   11  C  1 YY   -0.021704   0.000000   0.000000   0.000000  -0.006874
   12  C  1 ZZ    0.015681   0.000000   0.000000   0.000000   0.007546
   13  C  1 XY    0.000000   0.000000   0.000000   0.000000   0.000000
   14  C  1 XZ    0.000000   0.000000   0.025006  -0.023722   0.000000
   15  C  1 YZ    0.000000  -0.036637   0.000000   0.000000   0.000000
   16  C  2  S   -0.010819   0.000000   0.000000   0.000000  -0.077203
   17  C  2  S    0.022710   0.000000   0.000000   0.000000   0.076385
   18  C  2  X    0.000000   0.000000   0.373196  -0.342956   0.000000
   19  C  2  Y    0.000000  -0.302831   0.000000   0.000000   0.000000
   20  C  2  Z   -0.405351   0.000000   0.000000   0.000000   0.147544
   21  C  2  S   -0.018140   0.000000   0.000000   0.000000   1.460100
   22  C  2  X    0.000000   0.000000   0.308595  -0.730014   0.000000
   23  C  2  Y    0.000000  -0.196611   0.000000   0.000000   0.000000
   24  C  2  Z   -0.157215   0.000000   0.000000   0.000000   0.638840
   25  C  2 XX    0.006023   0.000000   0.000000   0.000000  -0.000673
   26  C  2 YY   -0.021704   0.000000   0.000000   0.000000  -0.006874
   27  C  2 ZZ    0.015681   0.000000   0.000000   0.000000   0.007546
   28  C  2 XY    0.000000   0.000000   0.000000   0.000000   0.000000
   29  C  2 XZ    0.000000   0.000000  -0.025006  -0.023722   0.000000
   30  C  2 YZ    0.000000  -0.036637   0.000000   0.000000   0.000000
   31  H  3  S   -0.124811   0.188275   0.000000   0.000000  -0.015485
   32  H  3  S   -0.099643   0.155411   0.000000   0.000000  -1.021704
   33  H  4  S   -0.124811   0.188275   0.000000   0.000000  -0.015485
   34  H  4  S   -0.099643   0.155411   0.000000   0.000000  -1.021704
   35  H  5  S   -0.124811  -0.188275   0.000000   0.000000  -0.015485
   36  H  5  S   -0.099643  -0.155411   0.000000   0.000000  -1.021704
   37  H  6  S   -0.124811  -0.188275   0.000000   0.000000  -0.015485
   38  H  6  S   -0.099643  -0.155411   0.000000   0.000000  -1.021704

                     11         12         13         14         15
                    0.2903     0.3047     0.3896     0.4892     0.6719
                     B2U        B1U        B3G        B1U        AG  
    1  C  1  S    0.000000  -0.108102   0.000000  -0.069339  -0.017920
    2  C  1  S    0.000000   0.100749   0.000000   0.009538  -0.223654
    3  C  1  X    0.000000   0.000000   0.000000   0.000000   0.000000
    4  C  1  Y    0.253509   0.000000   0.251532   0.000000   0.000000
    5  C  1  Z    0.000000  -0.096179   0.000000   0.138311  -0.560804
    6  C  1  S    0.000000   1.872644   0.000000   2.980146  -0.227923
    7  C  1  X    0.000000   0.000000   0.000000   0.000000   0.000000
    8  C  1  Y    0.795136   0.000000   1.838865   0.000000   0.000000
    9  C  1  Z    0.000000  -0.160443   0.000000   2.924805   1.032649
   10  C  1 XX    0.000000  -0.006271   0.000000  -0.014634   0.015758
   11  C  1 YY    0.000000   0.005185   0.000000   0.019510   0.051155
   12  C  1 ZZ    0.000000   0.001086   0.000000  -0.004876  -0.066914
   13  C  1 XY    0.000000   0.000000   0.000000   0.000000   0.000000
   14  C  1 XZ    0.000000   0.000000   0.000000   0.000000   0.000000
   15  C  1 YZ    0.022446   0.000000  -0.017727   0.000000   0.000000
   16  C  2  S    0.000000   0.108102   0.000000   0.069339  -0.017920
   17  C  2  S    0.000000  -0.100749   0.000000  -0.009538  -0.223654
   18  C  2  X    0.000000   0.000000   0.000000   0.000000   0.000000
   19  C  2  Y    0.253509   0.000000  -0.251532   0.000000   0.000000
   20  C  2  Z    0.000000  -0.096179   0.000000   0.138311   0.560804
   21  C  2  S    0.000000  -1.872644   0.000000  -2.980146  -0.227923
   22  C  2  X    0.000000   0.000000   0.000000   0.000000   0.000000
   23  C  2  Y    0.795136   0.000000  -1.838865   0.000000   0.000000
   24  C  2  Z    0.000000  -0.160443   0.000000   2.924805  -1.032649
   25  C  2 XX    0.000000   0.006271   0.000000   0.014634   0.015758
   26  C  2 YY    0.000000  -0.005185   0.000000  -0.019510   0.051155
   27  C  2 ZZ    0.000000  -0.001086   0.000000   0.004876  -0.066914
   28  C  2 XY    0.000000   0.000000   0.000000   0.000000   0.000000
   29  C  2 XZ    0.000000   0.000000   0.000000   0.000000   0.000000
   30  C  2 YZ   -0.022446   0.000000  -0.017727   0.000000   0.000000
   31  H  3  S    0.043665   0.020369   0.039200  -0.077238   0.095222
   32  H  3  S    1.075243   1.054460  -1.589228  -0.568505   0.073700
   33  H  4  S   -0.043665  -0.020369   0.039200   0.077238   0.095222
   34  H  4  S   -1.075243  -1.054460  -1.589228   0.568505   0.073700
   35  H  5  S    0.043665  -0.020369  -0.039200   0.077238   0.095222
   36  H  5  S    1.075243  -1.054460   1.589228   0.568505   0.073700
   37  H  6  S   -0.043665   0.020369  -0.039200  -0.077238   0.095222
   38  H  6  S   -1.075243   1.054460   1.589228  -0.568505   0.073700

                     16         17         18         19         20
                    0.7651     0.7774     0.8636     0.8886     0.9499
                     B2U        B3U        AG         B2G        B1U 
    1  C  1  S    0.000000   0.000000  -0.023412   0.000000  -0.083506
    2  C  1  S    0.000000   0.000000  -0.877471   0.000000  -0.081356
    3  C  1  X    0.000000   0.741537   0.000000  -0.817888   0.000000
    4  C  1  Y   -0.402399   0.000000   0.000000   0.000000   0.000000
    5  C  1  Z    0.000000   0.000000  -0.030717   0.000000   0.602443
    6  C  1  S    0.000000   0.000000   1.421069   0.000000   0.733691
    7  C  1  X    0.000000  -0.639781   0.000000   1.071980   0.000000
    8  C  1  Y    0.752424   0.000000   0.000000   0.000000   0.000000
    9  C  1  Z    0.000000   0.000000  -0.342120   0.000000  -0.491965
   10  C  1 XX    0.000000   0.000000   0.116264   0.000000   0.132030
   11  C  1 YY    0.000000   0.000000  -0.084548   0.000000  -0.010419
   12  C  1 ZZ    0.000000   0.000000  -0.031716   0.000000  -0.121611
   13  C  1 XY    0.000000   0.000000   0.000000   0.000000   0.000000
   14  C  1 XZ    0.000000   0.068157   0.000000   0.031011   0.000000
   15  C  1 YZ    0.094638   0.000000   0.000000   0.000000   0.000000
   16  C  2  S    0.000000   0.000000  -0.023412   0.000000   0.083506
   17  C  2  S    0.000000   0.000000  -0.877471   0.000000   0.081356
   18  C  2  X    0.000000   0.741537   0.000000   0.817888   0.000000
   19  C  2  Y   -0.402399   0.000000   0.000000   0.000000   0.000000
   20  C  2  Z    0.000000   0.000000   0.030717   0.000000   0.602443
   21  C  2  S    0.000000   0.000000   1.421069   0.000000  -0.733691
   22  C  2  X    0.000000  -0.639781   0.000000  -1.071980   0.000000
   23  C  2  Y    0.752424   0.000000   0.000000   0.000000   0.000000
   24  C  2  Z    0.000000   0.000000   0.342120   0.000000  -0.491965
   25  C  2 XX    0.000000   0.000000   0.116264   0.000000  -0.132030
   26  C  2 YY    0.000000   0.000000  -0.084548   0.000000   0.010419
   27  C  2 ZZ    0.000000   0.000000  -0.031716   0.000000   0.121611
   28  C  2 XY    0.000000   0.000000   0.000000   0.000000   0.000000
   29  C  2 XZ    0.000000  -0.068157   0.000000   0.031011   0.000000
   30  C  2 YZ   -0.094638   0.000000   0.000000   0.000000   0.000000
   31  H  3  S    0.389013   0.000000  -0.402384   0.000000   0.387742
   32  H  3  S    0.041718   0.000000  -0.206193   0.000000   0.058589
   33  H  4  S   -0.389013   0.000000  -0.402384   0.000000  -0.387742
   34  H  4  S   -0.041718   0.000000  -0.206193   0.000000  -0.058589
   35  H  5  S    0.389013   0.000000  -0.402384   0.000000  -0.387742
   36  H  5  S    0.041718   0.000000  -0.206193   0.000000  -0.058589
   37  H  6  S   -0.389013   0.000000  -0.402384   0.000000   0.387742
   38  H  6  S   -0.041718   0.000000  -0.206193   0.000000   0.058589

                     21         22         23         24         25
                    1.1082     1.1524     1.2023     1.2091     1.3358
                     B2U        B3G        AG         B1U        B1U 
    1  C  1  S    0.000000   0.000000   0.031375  -0.028914  -0.014976
    2  C  1  S    0.000000   0.000000  -1.037534   0.537453  -1.586406
    3  C  1  X    0.000000   0.000000   0.000000   0.000000   0.000000
    4  C  1  Y   -0.688492  -0.920194   0.000000   0.000000   0.000000
    5  C  1  Z    0.000000   0.000000   0.359272  -0.627385  -0.262448
    6  C  1  S    0.000000   0.000000   1.717128  -0.559787   5.318333
    7  C  1  X    0.000000   0.000000   0.000000   0.000000   0.000000
    8  C  1  Y    1.092299   2.801910   0.000000   0.000000   0.000000
    9  C  1  Z    0.000000   0.000000  -0.491740   1.204358   1.910182
   10  C  1 XX    0.000000   0.000000  -0.053843   0.054345   0.009406
   11  C  1 YY    0.000000   0.000000   0.110586  -0.143325  -0.134971
   12  C  1 ZZ    0.000000   0.000000  -0.056743   0.088981   0.125565
   13  C  1 XY    0.000000   0.000000   0.000000   0.000000   0.000000
   14  C  1 XZ    0.000000   0.000000   0.000000   0.000000   0.000000
   15  C  1 YZ   -0.185633   0.001977   0.000000   0.000000   0.000000
   16  C  2  S    0.000000   0.000000   0.031375   0.028914   0.014976
   17  C  2  S    0.000000   0.000000  -1.037534  -0.537453   1.586406
   18  C  2  X    0.000000   0.000000   0.000000   0.000000   0.000000
   19  C  2  Y   -0.688492   0.920194   0.000000   0.000000   0.000000
   20  C  2  Z    0.000000   0.000000  -0.359272  -0.627385  -0.262448
   21  C  2  S    0.000000   0.000000   1.717128   0.559787  -5.318333
   22  C  2  X    0.000000   0.000000   0.000000   0.000000   0.000000
   23  C  2  Y    1.092299  -2.801910   0.000000   0.000000   0.000000
   24  C  2  Z    0.000000   0.000000   0.491740   1.204358   1.910182
   25  C  2 XX    0.000000   0.000000  -0.053843  -0.054345  -0.009406
   26  C  2 YY    0.000000   0.000000   0.110586   0.143325   0.134971
   27  C  2 ZZ    0.000000   0.000000  -0.056743  -0.088981  -0.125565
   28  C  2 XY    0.000000   0.000000   0.000000   0.000000   0.000000
   29  C  2 XZ    0.000000   0.000000   0.000000   0.000000   0.000000
   30  C  2 YZ    0.185633   0.001977   0.000000   0.000000   0.000000
   31  H  3  S   -0.381764   0.173781   0.436213   0.463082   0.129969
   32  H  3  S    1.049436  -1.447582  -0.860963  -0.965075   0.310366
   33  H  4  S    0.381764   0.173781   0.436213  -0.463082  -0.129969
   34  H  4  S   -1.049436  -1.447582  -0.860963   0.965075  -0.310366
   35  H  5  S   -0.381764  -0.173781   0.436213  -0.463082  -0.129969
   36  H  5  S    1.049436   1.447582  -0.860963   0.965075  -0.310366
   37  H  6  S    0.381764  -0.173781   0.436213   0.463082   0.129969
   38  H  6  S   -1.049436   1.447582  -0.860963  -0.965075   0.310366

                     26         27         28         29         30
                    1.4651     1.7371     1.8247     2.1269     2.1980
                     B3G        B3U        B1G        AU         AG  
    1  C  1  S    0.000000   0.000000   0.000000   0.000000   0.027211
    2  C  1  S    0.000000   0.000000   0.000000   0.000000   0.216119
    3  C  1  X    0.000000  -0.187649   0.000000   0.000000   0.000000
    4  C  1  Y   -0.072278   0.000000   0.000000   0.000000   0.000000
    5  C  1  Z    0.000000   0.000000   0.000000   0.000000   0.095199
    6  C  1  S    0.000000   0.000000   0.000000   0.000000  -0.596684
    7  C  1  X    0.000000   0.040576   0.000000   0.000000   0.000000
    8  C  1  Y    2.574126   0.000000   0.000000   0.000000   0.000000
    9  C  1  Z    0.000000   0.000000   0.000000   0.000000   0.202331
   10  C  1 XX    0.000000   0.000000   0.000000   0.000000   0.681883
   11  C  1 YY    0.000000   0.000000   0.000000   0.000000  -0.552014
   12  C  1 ZZ    0.000000   0.000000   0.000000   0.000000  -0.129869
   13  C  1 XY    0.000000   0.000000   0.681739   0.735535   0.000000
   14  C  1 XZ    0.000000   0.619753   0.000000   0.000000   0.000000
   15  C  1 YZ    0.164702   0.000000   0.000000   0.000000   0.000000
   16  C  2  S    0.000000   0.000000   0.000000   0.000000   0.027211
   17  C  2  S    0.000000   0.000000   0.000000   0.000000   0.216119
   18  C  2  X    0.000000  -0.187649   0.000000   0.000000   0.000000
   19  C  2  Y    0.072278   0.000000   0.000000   0.000000   0.000000
   20  C  2  Z    0.000000   0.000000   0.000000   0.000000  -0.095199
   21  C  2  S    0.000000   0.000000   0.000000   0.000000  -0.596684
   22  C  2  X    0.000000   0.040576   0.000000   0.000000   0.000000
   23  C  2  Y   -2.574126   0.000000   0.000000   0.000000   0.000000
   24  C  2  Z    0.000000   0.000000   0.000000   0.000000  -0.202331
   25  C  2 XX    0.000000   0.000000   0.000000   0.000000   0.681883
   26  C  2 YY    0.000000   0.000000   0.000000   0.000000  -0.552014
   27  C  2 ZZ    0.000000   0.000000   0.000000   0.000000  -0.129869
   28  C  2 XY    0.000000   0.000000   0.681739  -0.735535   0.000000
   29  C  2 XZ    0.000000  -0.619753   0.000000   0.000000   0.000000
   30  C  2 YZ    0.164702   0.000000   0.000000   0.000000   0.000000
   31  H  3  S   -0.689689   0.000000   0.000000   0.000000   0.364745
   32  H  3  S   -0.671780   0.000000   0.000000   0.000000   0.103825
   33  H  4  S   -0.689689   0.000000   0.000000   0.000000   0.364745
   34  H  4  S   -0.671780   0.000000   0.000000   0.000000   0.103825
   35  H  5  S    0.689689   0.000000   0.000000   0.000000   0.364745
   36  H  5  S    0.671780   0.000000   0.000000   0.000000   0.103825
   37  H  6  S    0.689689   0.000000   0.000000   0.000000   0.364745
   38  H  6  S    0.671780   0.000000   0.000000   0.000000   0.103825

                     31         32         33         34         35
                    2.3113     2.4006     2.6066     2.7021     3.0402
                     B2U        AG         B1U        B2G        B3G 
    1  C  1  S    0.000000  -0.003444  -0.038169   0.000000   0.000000
    2  C  1  S    0.000000  -0.501429  -0.297904   0.000000   0.000000
    3  C  1  X    0.000000   0.000000   0.000000   0.121110   0.000000
    4  C  1  Y   -0.261228   0.000000   0.000000   0.000000   0.074084
    5  C  1  Z    0.000000  -0.287126  -0.090174   0.000000   0.000000
    6  C  1  S    0.000000   0.157466   1.303437   0.000000   0.000000
    7  C  1  X    0.000000   0.000000   0.000000   0.263617   0.000000
    8  C  1  Y   -0.200070   0.000000   0.000000   0.000000  -0.526806
    9  C  1  Z    0.000000   0.444116   0.258454   0.000000   0.000000
   10  C  1 XX    0.000000  -0.211843  -0.686319   0.000000   0.000000
   11  C  1 YY    0.000000  -0.476725   0.688975   0.000000   0.000000
   12  C  1 ZZ    0.000000   0.688568  -0.002656   0.000000   0.000000
   13  C  1 XY    0.000000   0.000000   0.000000   0.000000   0.000000
   14  C  1 XZ    0.000000   0.000000   0.000000   0.899240   0.000000
   15  C  1 YZ    0.688497   0.000000   0.000000   0.000000   0.961328
   16  C  2  S    0.000000  -0.003444   0.038169   0.000000   0.000000
   17  C  2  S    0.000000  -0.501429   0.297904   0.000000   0.000000
   18  C  2  X    0.000000   0.000000   0.000000  -0.121110   0.000000
   19  C  2  Y   -0.261228   0.000000   0.000000   0.000000  -0.074084
   20  C  2  Z    0.000000   0.287126  -0.090174   0.000000   0.000000
   21  C  2  S    0.000000   0.157466  -1.303437   0.000000   0.000000
   22  C  2  X    0.000000   0.000000   0.000000  -0.263617   0.000000
   23  C  2  Y   -0.200070   0.000000   0.000000   0.000000   0.526806
   24  C  2  Z    0.000000  -0.444116   0.258454   0.000000   0.000000
   25  C  2 XX    0.000000  -0.211843   0.686319   0.000000   0.000000
   26  C  2 YY    0.000000  -0.476725  -0.688975   0.000000   0.000000
   27  C  2 ZZ    0.000000   0.688568   0.002656   0.000000   0.000000
   28  C  2 XY    0.000000   0.000000   0.000000   0.000000   0.000000
   29  C  2 XZ    0.000000   0.000000   0.000000   0.899240   0.000000
   30  C  2 YZ   -0.688497   0.000000   0.000000   0.000000   0.961328
   31  H  3  S   -0.506647   0.152066   0.432458   0.000000   0.462644
   32  H  3  S    0.091058  -0.030075   0.004004   0.000000   0.029485
   33  H  4  S    0.506647   0.152066  -0.432458   0.000000   0.462644
   34  H  4  S   -0.091058  -0.030075  -0.004004   0.000000   0.029485
   35  H  5  S   -0.506647   0.152066  -0.432458   0.000000  -0.462644
   36  H  5  S    0.091058  -0.030075  -0.004004   0.000000  -0.029485
   37  H  6  S    0.506647   0.152066   0.432458   0.000000  -0.462644
   38  H  6  S   -0.091058  -0.030075   0.004004   0.000000  -0.029485

                     36
                    3.0559
                     B1U 
    1  C  1  S   -0.067757
    2  C  1  S    0.296428
    3  C  1  X    0.000000
    4  C  1  Y    0.000000
    5  C  1  Z    0.779586
    6  C  1  S    2.025364
    7  C  1  X    0.000000
    8  C  1  Y    0.000000
    9  C  1  Z    1.179688
   10  C  1 XX   -0.558417
   11  C  1 YY   -0.550065
   12  C  1 ZZ    1.108483
   13  C  1 XY    0.000000
   14  C  1 XZ    0.000000
   15  C  1 YZ    0.000000
   16  C  2  S    0.067757
   17  C  2  S   -0.296428
   18  C  2  X    0.000000
   19  C  2  Y    0.000000
   20  C  2  Z    0.779586
   21  C  2  S   -2.025364
   22  C  2  X    0.000000
   23  C  2  Y    0.000000
   24  C  2  Z    1.179688
   25  C  2 XX    0.558417
   26  C  2 YY    0.550065
   27  C  2 ZZ   -1.108483
   28  C  2 XY    0.000000
   29  C  2 XZ    0.000000
   30  C  2 YZ    0.000000
   31  H  3  S   -0.004569
   32  H  3  S   -0.057716
   33  H  4  S    0.004569
   34  H  4  S    0.057716
   35  H  5  S    0.004569
   36  H  5  S    0.057716
   37  H  6  S   -0.004569
   38  H  6  S   -0.057716
 ...... END OF RHF CALCULATION ......
 CPU     0: STEP CPU TIME=     0.05 TOTAL CPU TIME=        0.1 (    0.0 MIN)
 TOTAL WALL CLOCK TIME=        0.1 SECONDS, CPU UTILIZATION IS 100.00%

     ----------------------------------------------------------------
     PROPERTY VALUES FOR THE RHF   SELF-CONSISTENT FIELD WAVEFUNCTION
     ----------------------------------------------------------------

          ---------------------------------------
          MULLIKEN AND LOWDIN POPULATION ANALYSES
          ---------------------------------------

               ----- POPULATIONS IN EACH AO -----
                             MULLIKEN      LOWDIN
              1  C  1  S      1.99756     1.98200
              2  C  1  S      0.67034     0.35966
              3  C  1  X      0.50166     0.46908
              4  C  1  Y      0.70666     0.63021
              5  C  1  Z      0.75027     0.66780
              6  C  1  S      0.59872     0.34147
              7  C  1  X      0.49076     0.51976
              8  C  1  Y      0.36658     0.47371
              9  C  1  Z      0.23584     0.37988
             10  C  1 XX      0.00818     0.10150
             11  C  1 YY      0.00703     0.17032
             12  C  1 ZZ      0.00000     0.18338
             13  C  1 XY      0.00757     0.00000
             14  C  1 XZ      0.01876     0.01116
             15  C  1 YZ      0.00000     0.03440
             16  C  2  S      1.99756     1.98200
             17  C  2  S      0.67034     0.35966
             18  C  2  X      0.50166     0.46908
             19  C  2  Y      0.70666     0.63021
             20  C  2  Z      0.75027     0.66780
             21  C  2  S      0.59872     0.34147
             22  C  2  X      0.49076     0.51976
             23  C  2  Y      0.36658     0.47371
             24  C  2  Z      0.23584     0.37988
             25  C  2 XX      0.00818     0.10150
             26  C  2 YY      0.00703     0.17032
             27  C  2 ZZ      0.00000     0.18338
             28  C  2 XY      0.00757     0.00000
             29  C  2 XZ      0.01876     0.01116
             30  C  2 YZ      0.00000     0.03440
             31  H  3  S      0.52331     0.48222
             32  H  3  S      0.29672     0.35561
             33  H  4  S      0.52331     0.48222
             34  H  4  S      0.29672     0.35561
             35  H  5  S      0.52331     0.48222
             36  H  5  S      0.29672     0.35561
             37  H  6  S      0.52331     0.48222
             38  H  6  S      0.29672     0.35561

          ----- MULLIKEN ATOMIC OVERLAP POPULATIONS -----
          (OFF-DIAGONAL ELEMENTS NEED TO BE MULTIPLIED BY 2)

             1           2           3           4           5

    1    5.0145825
    2    0.6327949   5.0145825
    3   -0.0384783   0.3947568   0.4931649
    4    0.3947568  -0.0384783   0.0027142   0.4931649
    5    0.3947568  -0.0384783  -0.0031976  -0.0289271   0.4931649
    6   -0.0384783   0.3947568  -0.0289271  -0.0031976   0.0027142

             6

    6    0.4931649

          TOTAL MULLIKEN AND LOWDIN ATOMIC POPULATIONS
       ATOM         MULL.POP.    CHARGE          LOW.POP.     CHARGE
    1 CARBON        6.359934   -0.359934         6.324328   -0.324328
    2 CARBON        6.359934   -0.359934         6.324328   -0.324328
    3 HYDROGEN      0.820033    0.179967         0.837836    0.162164
    4 HYDROGEN      0.820033    0.179967         0.837836    0.162164
    5 HYDROGEN      0.820033    0.179967         0.837836    0.162164
    6 HYDROGEN      0.820033    0.179967         0.837836    0.162164

          MULLIKEN SPHERICAL HARMONIC POPULATIONS
       ATOM           S       P       D      F      G      H      I    TOTAL
    1 CARBON        3.27    3.05    0.04   0.00   0.00   0.00   0.00    6.36
    2 CARBON        3.27    3.05    0.04   0.00   0.00   0.00   0.00    6.36
    3 HYDROGEN      0.82    0.00    0.00   0.00   0.00   0.00   0.00    0.82
    4 HYDROGEN      0.82    0.00    0.00   0.00   0.00   0.00   0.00    0.82
    5 HYDROGEN      0.82    0.00    0.00   0.00   0.00   0.00   0.00    0.82
    6 HYDROGEN      0.82    0.00    0.00   0.00   0.00   0.00   0.00    0.82

          -------------------------------
          BOND ORDER AND VALENCE ANALYSIS     BOND ORDER THRESHOLD=0.050
          -------------------------------

                   BOND                       BOND                       BOND
  ATOM PAIR DIST  ORDER      ATOM PAIR DIST  ORDER      ATOM PAIR DIST  ORDER
    1   2  1.344  1.975        1   4  1.090  0.954        1   5  1.090  0.954
    2   3  1.090  0.954        2   6  1.090  0.954

                       TOTAL       BONDED        FREE
      ATOM            VALENCE     VALENCE     VALENCE
    1 CARBON            3.853       3.853       0.000
    2 CARBON            3.853       3.853       0.000
    3 HYDROGEN          0.936       0.936       0.000
    4 HYDROGEN          0.936       0.936       0.000
    5 HYDROGEN          0.936       0.936       0.000
    6 HYDROGEN          0.936       0.936       0.000

          ---------------------
          ELECTROSTATIC MOMENTS
          ---------------------

 POINT   1           X           Y           Z (BOHR)    CHARGE
                 0.000000    0.000000    0.000000        0.00 (A.U.)
         DX          DY          DZ         /D/  (DEBYE)
     0.000000    0.000000    0.000000    0.000000
 ...... END OF PROPERTY EVALUATION ......
 CPU     0: STEP CPU TIME=     0.01 TOTAL CPU TIME=        0.1 (    0.0 MIN)
 TOTAL WALL CLOCK TIME=        0.1 SECONDS, CPU UTILIZATION IS 100.00%

     ---------------------------
     COUPLED CLUSTER CALCULATION
     ---------------------------
 CCTYP                        =CCSD(T) 
 TOTAL NUMBER OF MOS          =    36
 NUMBER OF OCCUPIED MOS       =     8
 NUMBER OF FROZEN CORE MOS    =     2
 NUMBER OF FROZEN VIRTUAL MOS =     0
 MAXIMUM CC ITERATIONS        =    30
 MAXIMUM DIIS ITERATIONS      =     5
 CONVERGENCE CRITERION FOR CC =     7
 AMPLITUDE ACCURACY THRESHOLD = 0.0E+00

     --------------------------------------------
     PARTIAL TWO ELECTRON INTEGRAL TRANSFORMATION
     --------------------------------------------

 NUMBER OF CORE MOLECULAR ORBITALS     =    2
 NUMBER OF OCCUPIED MOLECULAR ORBITALS =    8
 TOTAL NUMBER OF MOLECULAR ORBITALS    =   36
 TOTAL NUMBER OF ATOMIC ORBITALS       =   38
 THRESHOLD FOR KEEPING TRANSFORMED 2E- INTEGRALS = 1.000E-09

 -------------------------------     ------------------------------
 DISTRIBUTED DATA TRANSFORMATION     PROGRAM WRITTEN BY G. FLETCHER
 -------------------------------     ------------------------------

 THE DISTRIBUTED MEMORY REQUIRED FOR THIS STEP IS MEMDDI=     1 MWORDS
 CREATING DISTRIBUTED STORAGE FOR [VIR VIR|VIR OCC] INTEGRALS
 DDI: Creating Array [0] - 741 x 168 = 124488 words.
 CREATING DISTRIBUTED STORAGE FOR [VIR OCC|VIR OCC] INTEGRALS
 DDI: Creating Array [1] - 1444 x 21 = 30324 words.
 CREATING DISTRIBUTED STORAGE FOR [VIR OCC|OCC OCC] INTEGRALS
 DDI: Creating Array [2] - 28 x 126 = 3528 words.
 CREATING DISTRIBUTED STORAGE FOR [OCC OCC|OCC OCC] INTEGRALS
 DDI: Creating Array [3] - 21 x 21 = 441 words.
 CREATING DISTRIBUTED STORAGE FOR [VIR VIR|OCC OCC] INTEGRALS
 DDI: Creating Array [4] - 741 x 21 = 15561 words.
 FOR    4 PROCESSORS, THE REPLICATED MEMORY NEEDED IS     62716 WORDS.
 SCHWARZ INEQUALITY OVERHEAD:       741 INTEGRALS, T=        0.00

      DIRECT 4-INDEX TRANSFORMATION 
      SCHWARZ INEQUALITY TEST SKIPPED          5 INTEGRAL BLOCKS
 ... END OF INTEGRAL TRANSFORMATION ...
 CPU     0: STEP CPU TIME=     0.27 TOTAL CPU TIME=        0.4 (    0.0 MIN)
 TOTAL WALL CLOCK TIME=        0.4 SECONDS, CPU UTILIZATION IS 100.00%

   -----------------------
   COUPLED-CLUSTER PROGRAM
   -----------------------

   -------------------------------------------------------
   P.PIECUCH, S.A.KUCHARSKI, M.WLOCH, K.KOWALSKI, M.MUSIAL
   -------------------------------------------------------

 *****************************************************************
 THE FOLLOWING PAPERS SHOULD BE CITED WHEN USING COUPLED-CLUSTER
 OPTIONS:

 CCTYP = LCCD, CCD, CCSD, CCSD(T)
 P. PIECUCH, S.A. KUCHARSKI, K. KOWALSKI, AND M. MUSIAL,
 COMP. PHYS. COMMUN. 149, 71-96 (2002).

 CCTYP = R-CC, CR-CC, CCSD(TQ), CR-CC(Q)
 P. PIECUCH, S.A. KUCHARSKI, K. KOWALSKI, AND M. MUSIAL,
 COMP. PHYS. COMMUN. 149, 71-96 (2002);
 K. KOWALSKI AND P. PIECUCH, J. CHEM. PHYS. 113, 18-35 (2000);
 K. KOWALSKI AND P. PIECUCH, J. CHEM. PHYS. 113, 5644-5652 (2000).

 CCTYP = EOM-CCSD, CR-EOM
 P. PIECUCH, S.A. KUCHARSKI, K. KOWALSKI, AND M. MUSIAL,
 COMP. PHYS. COMMUN. 149, 71-96 (2002);
 K. KOWALSKI AND P. PIECUCH, J. CHEM. PHYS. 120, 1715-1738 (2004);
 M. WLOCH, J.R. GOUR, K. KOWALSKI, AND P. PIECUCH,
 J. CHEM. PHYS. 122, 214107-1 - 214107-15 (2005).

 CCTYP = CR-CCL
 P. PIECUCH, S.A. KUCHARSKI, K. KOWALSKI, AND M. MUSIAL,
 COMP. PHYS. COMMUN. 149, 71-96 (2002);
 P. PIECUCH AND M. WLOCH, J. CHEM. PHYS. 123,
 224105-1 - 224105-10 (2005).

 CCTYP = CR-EOML
 P. PIECUCH, S.A. KUCHARSKI, K. KOWALSKI, AND M. MUSIAL,
 COMP. PHYS. COMMUN. 149, 71-96 (2002);
 P. PIECUCH, J. R. GOUR, AND M. WLOCH,
 INT. J. QUANTUM CHEM. 109, 3268-3304 (2009);
 K. KOWALSKI AND P. PIECUCH,
 J. CHEM. PHYS. 120, 1715-1738 (2004).

 IN ADDITION, THE USE OF CCPRP=.TRUE. IN $CCINP AND/OR THE USE
 OF CCPRPE=.TRUE. IN $EOMINP SHOULD REFERENCE

 M. WLOCH, J.R. GOUR, K. KOWALSKI, AND P. PIECUCH,
 J. CHEM. PHYS. 122, 214107-1 - 214107-15 (2005).
 *****************************************************************

 PARALLELIZATION OF CLOSED SHELL CCSD(T) IS
 J.L.BENTZ, R.M.OLSON, M.S.GORDON, M.W.SCHMIDT, R.A.KENDALL
   COMPUT.PHYS.COMMUN.  176, 589-600(2007)
 R.M.OLSON, J.L.BENTZ, R.A.KENDALL, M.W.SCHMIDT, M.S.GORDON
   J.COMPUT.THEORET.CHEM. 3, 1312-1328(2007)

 THE FOLLOWING CALCULATIONS WILL BE PERFORMED:
                                                     CCSD   
                                                     CCSD[T]
                                                     CCSD(T)

 THE FOLLOWING ENERGY WILL BE CONSIDERED THE HIGHEST LEVEL:    CCSD(T)
 THE AVAILABLE REPLICATED MEMORY IS    79997324 WORDS.
 CONVERGENCE THRESHOLD:   1.0E-07
 MAXIMUM NUMBER OF ITERATIONS:   30

 RUNNING THE DISTRIBUTED DATA, PARALLEL CCSD/CCSD(T) PROGRAM...

 PARALLEL CODE WRITTEN BY RYAN M. OLSON AND JONATHAN L. BENTZ,
 BASED ON SERIAL CODE OF P.PIECUCH, S.A.KUCHARSKI, K.KOWALSKI, M.MUSIAL

 1A.  REPLICATED MEMORY REQUIRED FOR PROCESS-BASED CCSD IS       190236 WORDS.
 1B.  REPLICATED MEMORY REQUIRED FOR    NODE-BASED CCSD IS       119666 WORDS.
 THIS RUN WILL USE       119666 WORDS OF REPLICATED MEMORY.
 2.       SHARED MEMORY REQUIRED FOR THE CCSD ITERS IS            92352 WORDS.
          SHARED MEMORY FOR THE (T) CORRECTION WILL BE           101984 WORDS.
 3.  DISTRIBUTED MEMORY FOR THIS JOB IS MEMDDI=       1 MWORDS.

 EXPLANATION (WHAT TO PUT IN $SYSTEM INPUT):
 1. THE PROCESS-BASED PARALLEL CCSD WILL BE CHOSEN IF MWORDS=       1,
    OTHERWISE, ENTER MWORDS=       1 TO RUN THE NODE-BASED PARALLEL CCSD.
    IT IS ALLOCATED BY EVERY COMPUTE PROCESS, SO THE SECOND, SMALLER VALUE
    IS UNDOUBTEDLY THE WISER CHOICE.
 2. THIS MEMORY CLASS PRESENTLY HAS NO INPUT KEYWORD.
    IT IS ALLOCATED ONCE PER NODE, OUT OF THE OPERATING SYSTEM'S SYSV MEMORY.
 3. THIS VALUE INCLUDES THE INTEGRAL TRANSFORMATION'S DISTRIBUTED MEMORY,
    SO MEMDDI=      1 SHOULD BE ENOUGH FOR THE ENTIRE JOB.
    IT IS ALLOCATED ONLY ONCE, FOR THE WHOLE RUN, SPREAD ACROSS ALL NODES.

 THIS JOB IS USING   4 NODES, WITH  1 PROCESSES/NODE,
 USING INPUT MEMORY VALUES MWORDS=      80 AND MEMDDI=      20
 MOST EFFICIENT VALUES ARE MWORDS=       1 AND MEMDDI=       1
 THE INPUT VALUES MEANS EACH SMP NODE WILL ALLOCATE      11 MBYTES OF MEMORY.

 DDI: Creating Array [5] - 168 x 168 = 28224 words.
 DDI: Creating Array [6] - 168 x 168 = 28224 words.
 DDI: Creating Array [7] - 168 x 168 = 28224 words.
 DDI: Creating Array [8] - 168 x 168 = 28224 words.
 DDI: Creating Array [9] - 168 x 168 = 28224 words.
 DDI: Creating Array [10] - 784 x 36 = 28224 words.
 DDI: Creating Array [11] - 784 x 36 = 28224 words.
 INITIALIZING INTEGRALS FOR CCSD
 RUNNING PROCESS-BASED CCSD ITERATIONS
 DDI: Creating Array [12] - 1444 x 21 = 30324 words.
 ITER:  1   CCSD    CORR. ENERGY:  -0.2689967412   CONV.: -2.0334E-02

 ITER  CPU TIME: TOTAL=     0.4  FORMULAE IN AO,MO BASIS=     0.3     0.1
 ITER WALL TIME: TOTAL=     0.4  FORMULAE IN AO,MO BASIS=     0.3     0.1
 IT IS BENEFICIAL TO ADD MORE PROCESSORS IF THE SCALABLE AO CONTRIBUTION'S TIME
 IS CONSIDERABLY LARGER THAN THE LESS SCALABLE MO CONTRIBUTION'S TIME.

 ITER:  2   CCSD    CORR. ENERGY:  -0.2747135457   CONV.: -1.2491E-02
 ITER:  3   CCSD    CORR. ENERGY:  -0.2773491680   CONV.: -3.6341E-03
 ITER:  4   CCSD    CORR. ENERGY:  -0.2775885950   CONV.: -2.3949E-02
 ITER:  5   CCSD    CORR. ENERGY:  -0.2776056332   CONV.: -2.3798E-02
 ITER:  6   CCSD    CORR. ENERGY:  -0.2781977776   CONV.: -1.9067E-02
 ITER:  7   CCSD    CORR. ENERGY:  -0.2799033183   CONV.: -4.7986E-03
 ITER:  8   CCSD    CORR. ENERGY:  -0.2804993592   CONV.:  1.8921E-04
 ITER:  9   CCSD    CORR. ENERGY:  -0.2804766476   CONV.: -6.9320E-06
 ITER: 10   CCSD    CORR. ENERGY:  -0.2804780958   CONV.: -1.7064E-06
 ITER: 11   CCSD    CORR. ENERGY:  -0.2804781985   CONV.:  5.9460E-07
 ITER: 12   CCSD    CORR. ENERGY:  -0.2804782505   CONV.: -1.3106E-07
 ITER: 13   CCSD    CORR. ENERGY:  -0.2804782406   CONV.:  3.9197E-08
 ITER: 14   CCSD    CORR. ENERGY:  -0.2804782361   CONV.:  3.9197E-08

     THE    CCSD     ITERATIONS HAVE CONVERGED

    MBPT(2) CORRELATION ENERGY:  -0.2522566974
    CCSD    CORRELATION ENERGY:  -0.2804782361

 T1 DIAGNOSTIC        =     0.01096501
 NORM OF THE T1 VECTOR=     0.03798391
 NORM OF THE T2 VECTOR=     0.33088361

 THE FIVE LARGEST T1 AMPLITUDES ARE:
 T1 AMPLITUDE IS -0.030188 FOR I=   8 -> A=  17
 T1 AMPLITUDE IS  0.012383 FOR I=   8 -> A=  27
 T1 AMPLITUDE IS -0.009348 FOR I=   5 -> A=  21
 T1 AMPLITUDE IS  0.008828 FOR I=   7 -> A=  22
 T1 AMPLITUDE IS  0.007854 FOR I=   5 -> A=  11

 THE FIVE LARGEST SPIN-UNIQUE T2 AMPLITUDES ARE:
 T2 AMPLITUDE IS -0.149148 FOR I,J=   8   8 -> A,B=   9   9
 T2 AMPLITUDE IS -0.042153 FOR I,J=   8   8 -> A,B=   9  19
 T2 AMPLITUDE IS -0.026324 FOR I,J=   5   5 -> A,B=  11  11
 T2 AMPLITUDE IS -0.024631 FOR I,J=   7   7 -> A,B=  11  11
 T2 AMPLITUDE IS  0.023977 FOR I,J=   4   8 -> A,B=  10   9
 PRINTED T2(I-ALPHA,J-BETA -> A-ALPHA,B-BETA) VALUES
 EQUAL   T2(J-ALPHA,I-BETA -> B-ALPHA,A-BETA) AMPLITUDES.

 ....... DONE WITH CC AMPLITUDE ITERATIONS .......
 CPU     0: STEP CPU TIME=     5.76 TOTAL CPU TIME=        6.1 (    0.1 MIN)
 TOTAL WALL CLOCK TIME=        6.1 SECONDS, CPU UTILIZATION IS 100.00%

 RUNNING THE DISTRIBUTED DATA, PARALLEL TRIPLES CORRECTION...

   REPLICATED MEMORY REQUIRED FOR TRIPLES IS         1120 WORDS.
       SHARED MEMORY REQUIRED FOR TRIPLES IS       101984 WORDS.
  DISTRIBUTED MEMORY IS ALREADY ALLOCATED ABOVE.


                      SUMMARY OF RESULTS

      REFERENCE ENERGY:      -78.0298934407
        MBPT(2) ENERGY:      -78.2821501381   CORR.E=  -0.2522566974
        CCSD    ENERGY:      -78.3103716767   CORR.E=  -0.2804782361
        CCSD[T] ENERGY:      -78.3198976068   CORR.E=  -0.2900041662
        CCSD(T) ENERGY:      -78.3194324917   CORR.E=  -0.2895390510

 THE FOLLOWING METHOD AND ENERGY WILL BE CONSIDERED THE HIGHEST LEVEL RESULT:
 COUPLED-CLUSTER ENERGY E(   CCSD(T)) =      -78.3194324917

 ..... DONE WITH CC NON-ITERATIVE TRIPLES CORRECTIONS .....
 CPU     0: STEP CPU TIME=     0.09 TOTAL CPU TIME=        6.2 (    0.1 MIN)
 TOTAL WALL CLOCK TIME=        6.2 SECONDS, CPU UTILIZATION IS 100.00%

 BEGINNING HESSIAN COMPUTATION BY TWICE-DIFFERENCING THE ENERGY...
 THE NUMBER OF ENERGIES AT DISPLACED GEOMETRIES WILL BE       252 AT MOST,
 BUT ADDITIONAL SYMMETRY CONSIDERATIONS TO BE MADE AT EACH
 DISPLACED GEOMETRY MAY REDUCE THIS VALUE SUBSTANTIALLY.
 A CHECK JOB WILL PRINT THE PRECISE NUMBER OF POINTS NEEDED.
 WITHOUT SYMMETRY, THE NUMBER OF ENERGIES NEEDED WOULD BE     792

 ************************************************
 * CALCULATING ENERGY     1 FOR NUMERIC HESSIAN *
 ************************************************
 MOVING ATOM   2 COORDINATE X TO        0.0100000000, AND
 MOVING ATOM   1 COORDINATE X TO        0.0100000000 A.U.
 ...... END OF ONE-ELECTRON INTEGRALS ......
 CPU     0: STEP CPU TIME=     0.05 TOTAL CPU TIME=        6.3 (    0.1 MIN)
 TOTAL WALL CLOCK TIME=        6.3 SECONDS, CPU UTILIZATION IS 100.00%
  ...... END OF TWO-ELECTRON INTEGRALS .....
 CPU     0: STEP CPU TIME=     0.00 TOTAL CPU TIME=        6.3 (    0.1 MIN)
 TOTAL WALL CLOCK TIME=        6.3 SECONDS, CPU UTILIZATION IS 100.00%

          --------------------------
                 RHF SCF CALCULATION
          --------------------------
     DENSITY MATRIX CONV=  2.00E-06

 DIRECT SCF CALCULATION, SCHWRZ=T   FDIFF=T,  DIRTHR=  0.00E+00 NITDIR=10

                                                                                   NONZERO     BLOCKS
 ITER EX DEM     TOTAL ENERGY        E CHANGE  DENSITY CHANGE     ORB. GRAD      INTEGRALS    SKIPPED
   1  0  0      -78.0298781872   -78.0298781872   0.000625032   0.000000000         193937          5
          ---------------START SECOND ORDER SCF---------------
   2  1  0      -78.0298844073    -0.0000062201   0.000329141   0.000276428         193578        301
   3  2  0      -78.0298848998    -0.0000004924   0.000185711   0.000082076         193246        442
   4  3  0      -78.0298849597    -0.0000000599   0.000014143   0.000006509         193081        481
   5  4  0      -78.0298849599    -0.0000000003   0.000004484   0.000001917         191419        812
   6  5  0      -78.0298849600     0.0000000000   0.000000336   0.000000329         189867       1054
   7  6  0      -78.0298849601    -0.0000000002   0.000000141   0.000000138         186661       1487

 RHF HAS CONVERGED, NOW COMPUTING EXACT TOTAL FOCK MATRIX
 FOR USE DURING THE COUPLED CLUSTER CALCULATION THAT FOLLOWS.

          -----------------
          DENSITY CONVERGED
          -----------------
     TIME TO FORM FOCK OPERATORS=       0.1 SECONDS (       0.0 SEC/ITER)
     FOCK TIME ON FIRST ITERATION=       0.0, LAST ITERATION=       0.0
     TIME TO SOLVE SCF EQUATIONS=       0.0 SECONDS (       0.0 SEC/ITER)

 FINAL RHF ENERGY IS      -78.0298849601 AFTER   7 ITERATIONS
 ...... END OF RHF CALCULATION ......
 CPU     0: STEP CPU TIME=     0.09 TOTAL CPU TIME=        6.4 (    0.1 MIN)
 TOTAL WALL CLOCK TIME=        6.4 SECONDS, CPU UTILIZATION IS 100.00%

     ---------------------------
     COUPLED CLUSTER CALCULATION
     ---------------------------
 CCTYP                        =CCSD(T) 
 TOTAL NUMBER OF MOS          =    36
 NUMBER OF OCCUPIED MOS       =     8
 NUMBER OF FROZEN CORE MOS    =     2
 NUMBER OF FROZEN VIRTUAL MOS =     0
 MAXIMUM CC ITERATIONS        =    30
 MAXIMUM DIIS ITERATIONS      =     5
 CONVERGENCE CRITERION FOR CC =     7
 AMPLITUDE ACCURACY THRESHOLD = 0.0E+00

     --------------------------------------------
     PARTIAL TWO ELECTRON INTEGRAL TRANSFORMATION
     --------------------------------------------

 NUMBER OF CORE MOLECULAR ORBITALS     =    2
 NUMBER OF OCCUPIED MOLECULAR ORBITALS =    8
 TOTAL NUMBER OF MOLECULAR ORBITALS    =   36
 TOTAL NUMBER OF ATOMIC ORBITALS       =   38
 THRESHOLD FOR KEEPING TRANSFORMED 2E- INTEGRALS = 1.000E-09

 -------------------------------     ------------------------------
 DISTRIBUTED DATA TRANSFORMATION     PROGRAM WRITTEN BY G. FLETCHER
 -------------------------------     ------------------------------

 THE DISTRIBUTED MEMORY REQUIRED FOR THIS STEP IS MEMDDI=     1 MWORDS
 CREATING DISTRIBUTED STORAGE FOR [VIR VIR|VIR OCC] INTEGRALS
 DDI: Creating Array [0] - 741 x 168 = 124488 words.
 CREATING DISTRIBUTED STORAGE FOR [VIR OCC|VIR OCC] INTEGRALS
 DDI: Creating Array [1] - 1444 x 21 = 30324 words.
 CREATING DISTRIBUTED STORAGE FOR [VIR OCC|OCC OCC] INTEGRALS
 DDI: Creating Array [2] - 28 x 126 = 3528 words.
 CREATING DISTRIBUTED STORAGE FOR [OCC OCC|OCC OCC] INTEGRALS
 DDI: Creating Array [3] - 21 x 21 = 441 words.
 CREATING DISTRIBUTED STORAGE FOR [VIR VIR|OCC OCC] INTEGRALS
 DDI: Creating Array [4] - 741 x 21 = 15561 words.
 FOR    4 PROCESSORS, THE REPLICATED MEMORY NEEDED IS     62716 WORDS.

      DIRECT 4-INDEX TRANSFORMATION 
      SCHWARZ INEQUALITY TEST SKIPPED         33 INTEGRAL BLOCKS
 ... END OF INTEGRAL TRANSFORMATION ...
 CPU     0: STEP CPU TIME=     1.81 TOTAL CPU TIME=        8.2 (    0.1 MIN)
 TOTAL WALL CLOCK TIME=        8.2 SECONDS, CPU UTILIZATION IS 100.00%

   -----------------------
   COUPLED-CLUSTER PROGRAM
   -----------------------

   -------------------------------------------------------
   P.PIECUCH, S.A.KUCHARSKI, M.WLOCH, K.KOWALSKI, M.MUSIAL
   -------------------------------------------------------

 THE FOLLOWING CALCULATIONS WILL BE PERFORMED:
                                                     CCSD   
                                                     CCSD[T]
                                                     CCSD(T)

 THE FOLLOWING ENERGY WILL BE CONSIDERED THE HIGHEST LEVEL:    CCSD(T)
 THE AVAILABLE REPLICATED MEMORY IS    79997324 WORDS.
 CONVERGENCE THRESHOLD:   1.0E-07
 MAXIMUM NUMBER OF ITERATIONS:   30

 RUNNING THE DISTRIBUTED DATA, PARALLEL CCSD/CCSD(T) PROGRAM...

 PARALLEL CODE WRITTEN BY RYAN M. OLSON AND JONATHAN L. BENTZ,
 BASED ON SERIAL CODE OF P.PIECUCH, S.A.KUCHARSKI, K.KOWALSKI, M.MUSIAL

 1A.  REPLICATED MEMORY REQUIRED FOR PROCESS-BASED CCSD IS       190236 WORDS.
 1B.  REPLICATED MEMORY REQUIRED FOR    NODE-BASED CCSD IS       119666 WORDS.
 THIS RUN WILL USE       119666 WORDS OF REPLICATED MEMORY.
 2.       SHARED MEMORY REQUIRED FOR THE CCSD ITERS IS            92352 WORDS.
          SHARED MEMORY FOR THE (T) CORRECTION WILL BE           101984 WORDS.
 3.  DISTRIBUTED MEMORY FOR THIS JOB IS MEMDDI=       1 MWORDS.

 EXPLANATION (WHAT TO PUT IN $SYSTEM INPUT):
 1. THE PROCESS-BASED PARALLEL CCSD WILL BE CHOSEN IF MWORDS=       1,
    OTHERWISE, ENTER MWORDS=       1 TO RUN THE NODE-BASED PARALLEL CCSD.
    IT IS ALLOCATED BY EVERY COMPUTE PROCESS, SO THE SECOND, SMALLER VALUE
    IS UNDOUBTEDLY THE WISER CHOICE.
 2. THIS MEMORY CLASS PRESENTLY HAS NO INPUT KEYWORD.
    IT IS ALLOCATED ONCE PER NODE, OUT OF THE OPERATING SYSTEM'S SYSV MEMORY.
 3. THIS VALUE INCLUDES THE INTEGRAL TRANSFORMATION'S DISTRIBUTED MEMORY,
    SO MEMDDI=      1 SHOULD BE ENOUGH FOR THE ENTIRE JOB.
    IT IS ALLOCATED ONLY ONCE, FOR THE WHOLE RUN, SPREAD ACROSS ALL NODES.

 THIS JOB IS USING   4 NODES, WITH  1 PROCESSES/NODE,
 USING INPUT MEMORY VALUES MWORDS=      80 AND MEMDDI=      20
 MOST EFFICIENT VALUES ARE MWORDS=       1 AND MEMDDI=       1
 THE INPUT VALUES MEANS EACH SMP NODE WILL ALLOCATE      11 MBYTES OF MEMORY.

 DDI: Creating Array [5] - 168 x 168 = 28224 words.
 DDI: Creating Array [6] - 168 x 168 = 28224 words.
 DDI: Creating Array [7] - 168 x 168 = 28224 words.
 DDI: Creating Array [8] - 168 x 168 = 28224 words.
 DDI: Creating Array [9] - 168 x 168 = 28224 words.
 DDI: Creating Array [10] - 784 x 36 = 28224 words.
 DDI: Creating Array [11] - 784 x 36 = 28224 words.
 INITIALIZING INTEGRALS FOR CCSD
 RUNNING PROCESS-BASED CCSD ITERATIONS
 DDI: Creating Array [12] - 1444 x 21 = 30324 words.
 ITER:  1   CCSD    CORR. ENERGY:  -0.2689985691   CONV.: -2.0335E-02

 ITER  CPU TIME: TOTAL=     0.7  FORMULAE IN AO,MO BASIS=     0.4     0.2
 ITER WALL TIME: TOTAL=     0.7  FORMULAE IN AO,MO BASIS=     0.4     0.2
 IT IS BENEFICIAL TO ADD MORE PROCESSORS IF THE SCALABLE AO CONTRIBUTION'S TIME
 IS CONSIDERABLY LARGER THAN THE LESS SCALABLE MO CONTRIBUTION'S TIME.

 ITER:  2   CCSD    CORR. ENERGY:  -0.2747155453   CONV.: -1.2492E-02
 ITER:  3   CCSD    CORR. ENERGY:  -0.2773512853   CONV.: -3.6342E-03
 ITER:  4   CCSD    CORR. ENERGY:  -0.2775907307   CONV.:  2.3949E-02
 ITER:  5   CCSD    CORR. ENERGY:  -0.2776077702   CONV.:  2.3798E-02
 ITER:  6   CCSD    CORR. ENERGY:  -0.2781999471   CONV.:  1.9067E-02
 ITER:  7   CCSD    CORR. ENERGY:  -0.2799055130   CONV.:  4.7985E-03
 ITER:  8   CCSD    CORR. ENERGY:  -0.2805015662   CONV.: -1.8925E-04
 ITER:  9   CCSD    CORR. ENERGY:  -0.2804788487   CONV.:  6.9318E-06
 ITER: 10   CCSD    CORR. ENERGY:  -0.2804802973   CONV.:  1.7056E-06
 ITER: 11   CCSD    CORR. ENERGY:  -0.2804804000   CONV.:  5.9435E-07
 ITER: 12   CCSD    CORR. ENERGY:  -0.2804804519   CONV.:  1.3061E-07
 ITER: 13   CCSD    CORR. ENERGY:  -0.2804804420   CONV.:  3.8972E-08
 ITER: 14   CCSD    CORR. ENERGY:  -0.2804804374   CONV.:  3.8972E-08

     THE    CCSD     ITERATIONS HAVE CONVERGED

    MBPT(2) CORRELATION ENERGY:  -0.2522585722
    CCSD    CORRELATION ENERGY:  -0.2804804374

 T1 DIAGNOSTIC        =     0.01096517
 NORM OF THE T1 VECTOR=     0.03798447
 NORM OF THE T2 VECTOR=     0.33088873

 THE FIVE LARGEST T1 AMPLITUDES ARE:
 T1 AMPLITUDE IS  0.030188 FOR I=   8 -> A=  17
 T1 AMPLITUDE IS  0.012382 FOR I=   8 -> A=  27
 T1 AMPLITUDE IS  0.009349 FOR I=   5 -> A=  21
 T1 AMPLITUDE IS  0.008828 FOR I=   7 -> A=  22
 T1 AMPLITUDE IS  0.007855 FOR I=   5 -> A=  11

 THE FIVE LARGEST SPIN-UNIQUE T2 AMPLITUDES ARE:
 T2 AMPLITUDE IS -0.149152 FOR I,J=   8   8 -> A,B=   9   9
 T2 AMPLITUDE IS  0.042152 FOR I,J=   8   8 -> A,B=   9  19
 T2 AMPLITUDE IS -0.026325 FOR I,J=   5   5 -> A,B=  11  11
 T2 AMPLITUDE IS -0.024632 FOR I,J=   7   7 -> A,B=  11  11
 T2 AMPLITUDE IS  0.023977 FOR I,J=   4   8 -> A,B=  10   9
 PRINTED T2(I-ALPHA,J-BETA -> A-ALPHA,B-BETA) VALUES
 EQUAL   T2(J-ALPHA,I-BETA -> B-ALPHA,A-BETA) AMPLITUDES.

 ....... DONE WITH CC AMPLITUDE ITERATIONS .......
 CPU     0: STEP CPU TIME=     6.16 TOTAL CPU TIME=       14.3 (    0.2 MIN)
 TOTAL WALL CLOCK TIME=       14.3 SECONDS, CPU UTILIZATION IS 100.00%

 RUNNING THE DISTRIBUTED DATA, PARALLEL TRIPLES CORRECTION...

   REPLICATED MEMORY REQUIRED FOR TRIPLES IS         1120 WORDS.
       SHARED MEMORY REQUIRED FOR TRIPLES IS       101984 WORDS.
  DISTRIBUTED MEMORY IS ALREADY ALLOCATED ABOVE.


                      SUMMARY OF RESULTS

      REFERENCE ENERGY:      -78.0298849601
        MBPT(2) ENERGY:      -78.2821435323   CORR.E=  -0.2522585722
        CCSD    ENERGY:      -78.3103653975   CORR.E=  -0.2804804374
        CCSD[T] ENERGY:      -78.3198916130   CORR.E=  -0.2900066529
        CCSD(T) ENERGY:      -78.3194264783   CORR.E=  -0.2895415181

 THE FOLLOWING METHOD AND ENERGY WILL BE CONSIDERED THE HIGHEST LEVEL RESULT:
 COUPLED-CLUSTER ENERGY E(   CCSD(T)) =      -78.3194264783

 ..... DONE WITH CC NON-ITERATIVE TRIPLES CORRECTIONS .....
 CPU     0: STEP CPU TIME=     0.11 TOTAL CPU TIME=       14.5 (    0.2 MIN)
 TOTAL WALL CLOCK TIME=       14.5 SECONDS, CPU UTILIZATION IS 100.00%

 ************************************************
 * CALCULATING ENERGY     2 FOR NUMERIC HESSIAN *
 ************************************************
 MOVING ATOM   2 COORDINATE X TO        0.0100000000, AND
 MOVING ATOM   1 COORDINATE X TO       -0.0100000000 A.U.
 ...... END OF ONE-ELECTRON INTEGRALS ......
 CPU     0: STEP CPU TIME=     0.05 TOTAL CPU TIME=       14.5 (    0.2 MIN)
 TOTAL WALL CLOCK TIME=       14.5 SECONDS, CPU UTILIZATION IS 100.00%
  ...... END OF TWO-ELECTRON INTEGRALS .....
 CPU     0: STEP CPU TIME=     0.00 TOTAL CPU TIME=       14.5 (    0.2 MIN)
 TOTAL WALL CLOCK TIME=       14.5 SECONDS, CPU UTILIZATION IS 100.00%

          --------------------------
                 RHF SCF CALCULATION
          --------------------------
     DENSITY MATRIX CONV=  2.00E-06

 DIRECT SCF CALCULATION, SCHWRZ=T   FDIFF=T,  DIRTHR=  0.00E+00 NITDIR=10

                                                                                   NONZERO     BLOCKS
 ITER EX DEM     TOTAL ENERGY        E CHANGE  DENSITY CHANGE     ORB. GRAD      INTEGRALS    SKIPPED
   1  0  0      -78.0298430942   -78.0298430942   0.002008940   0.000000000         217293          5
          ---------------START SECOND ORDER SCF---------------
   2  1  0      -78.0298688819    -0.0000257878   0.000641406   0.000544928         216998        241
   3  2  0      -78.0298710130    -0.0000021311   0.000428014   0.000138627         216675        397
   4  3  0      -78.0298712895    -0.0000002765   0.000028929   0.000024141         216464        442
   5  4  0      -78.0298712940    -0.0000000045   0.000026071   0.000011924         214811        746
   6  5  0      -78.0298712954    -0.0000000014   0.000008163   0.000001946         214487        832
   7  6  0      -78.0298712954     0.0000000000   0.000003983   0.000000584         212359       1116
   8  7  0      -78.0298712953     0.0000000000   0.000000132   0.000000085         211583       1289

 RHF HAS CONVERGED, NOW COMPUTING EXACT TOTAL FOCK MATRIX
 FOR USE DURING THE COUPLED CLUSTER CALCULATION THAT FOLLOWS.

          -----------------
          DENSITY CONVERGED
          -----------------
     TIME TO FORM FOCK OPERATORS=       0.1 SECONDS (       0.0 SEC/ITER)
     FOCK TIME ON FIRST ITERATION=       0.0, LAST ITERATION=       0.0
     TIME TO SOLVE SCF EQUATIONS=       0.0 SECONDS (       0.0 SEC/ITER)

 FINAL RHF ENERGY IS      -78.0298712953 AFTER   8 ITERATIONS
 ...... END OF RHF CALCULATION ......
 CPU     0: STEP CPU TIME=     0.11 TOTAL CPU TIME=       14.6 (    0.2 MIN)
 TOTAL WALL CLOCK TIME=       14.6 SECONDS, CPU UTILIZATION IS 100.00%

     ---------------------------
     COUPLED CLUSTER CALCULATION
     ---------------------------
 CCTYP                        =CCSD(T) 
 TOTAL NUMBER OF MOS          =    36
 NUMBER OF OCCUPIED MOS       =     8
 NUMBER OF FROZEN CORE MOS    =     2
 NUMBER OF FROZEN VIRTUAL MOS =     0
 MAXIMUM CC ITERATIONS        =    30
 MAXIMUM DIIS ITERATIONS      =     5
 CONVERGENCE CRITERION FOR CC =     7
 AMPLITUDE ACCURACY THRESHOLD = 0.0E+00

     --------------------------------------------
     PARTIAL TWO ELECTRON INTEGRAL TRANSFORMATION
     --------------------------------------------

 NUMBER OF CORE MOLECULAR ORBITALS     =    2
 NUMBER OF OCCUPIED MOLECULAR ORBITALS =    8
 TOTAL NUMBER OF MOLECULAR ORBITALS    =   36
 TOTAL NUMBER OF ATOMIC ORBITALS       =   38
 THRESHOLD FOR KEEPING TRANSFORMED 2E- INTEGRALS = 1.000E-09

 -------------------------------     ------------------------------
 DISTRIBUTED DATA TRANSFORMATION     PROGRAM WRITTEN BY G. FLETCHER
 -------------------------------     ------------------------------

 THE DISTRIBUTED MEMORY REQUIRED FOR THIS STEP IS MEMDDI=     1 MWORDS
 CREATING DISTRIBUTED STORAGE FOR [VIR VIR|VIR OCC] INTEGRALS
 DDI: Creating Array [0] - 741 x 168 = 124488 words.
 CREATING DISTRIBUTED STORAGE FOR [VIR OCC|VIR OCC] INTEGRALS
 DDI: Creating Array [1] - 1444 x 21 = 30324 words.
 CREATING DISTRIBUTED STORAGE FOR [VIR OCC|OCC OCC] INTEGRALS
 DDI: Creating Array [2] - 28 x 126 = 3528 words.
 CREATING DISTRIBUTED STORAGE FOR [OCC OCC|OCC OCC] INTEGRALS
 DDI: Creating Array [3] - 21 x 21 = 441 words.
 CREATING DISTRIBUTED STORAGE FOR [VIR VIR|OCC OCC] INTEGRALS
 DDI: Creating Array [4] - 741 x 21 = 15561 words.
 FOR    4 PROCESSORS, THE REPLICATED MEMORY NEEDED IS     62716 WORDS.

      DIRECT 4-INDEX TRANSFORMATION 
      SCHWARZ INEQUALITY TEST SKIPPED         33 INTEGRAL BLOCKS
 ... END OF INTEGRAL TRANSFORMATION ...
 CPU     0: STEP CPU TIME=     1.02 TOTAL CPU TIME=       15.6 (    0.3 MIN)
 TOTAL WALL CLOCK TIME=       15.6 SECONDS, CPU UTILIZATION IS 100.00%

   -----------------------
   COUPLED-CLUSTER PROGRAM
   -----------------------

   -------------------------------------------------------
   P.PIECUCH, S.A.KUCHARSKI, M.WLOCH, K.KOWALSKI, M.MUSIAL
   -------------------------------------------------------

 THE FOLLOWING CALCULATIONS WILL BE PERFORMED:
                                                     CCSD   
                                                     CCSD[T]
                                                     CCSD(T)

 THE FOLLOWING ENERGY WILL BE CONSIDERED THE HIGHEST LEVEL:    CCSD(T)
 THE AVAILABLE REPLICATED MEMORY IS    79997324 WORDS.
 CONVERGENCE THRESHOLD:   1.0E-07
 MAXIMUM NUMBER OF ITERATIONS:   30

 RUNNING THE DISTRIBUTED DATA, PARALLEL CCSD/CCSD(T) PROGRAM...

 PARALLEL CODE WRITTEN BY RYAN M. OLSON AND JONATHAN L. BENTZ,
 BASED ON SERIAL CODE OF P.PIECUCH, S.A.KUCHARSKI, K.KOWALSKI, M.MUSIAL

 1A.  REPLICATED MEMORY REQUIRED FOR PROCESS-BASED CCSD IS       190236 WORDS.
 1B.  REPLICATED MEMORY REQUIRED FOR    NODE-BASED CCSD IS       119666 WORDS.
 THIS RUN WILL USE       119666 WORDS OF REPLICATED MEMORY.
 2.       SHARED MEMORY REQUIRED FOR THE CCSD ITERS IS            92352 WORDS.
          SHARED MEMORY FOR THE (T) CORRECTION WILL BE           101984 WORDS.
 3.  DISTRIBUTED MEMORY FOR THIS JOB IS MEMDDI=       1 MWORDS.

 EXPLANATION (WHAT TO PUT IN $SYSTEM INPUT):
 1. THE PROCESS-BASED PARALLEL CCSD WILL BE CHOSEN IF MWORDS=       1,
    OTHERWISE, ENTER MWORDS=       1 TO RUN THE NODE-BASED PARALLEL CCSD.
    IT IS ALLOCATED BY EVERY COMPUTE PROCESS, SO THE SECOND, SMALLER VALUE
    IS UNDOUBTEDLY THE WISER CHOICE.
 2. THIS MEMORY CLASS PRESENTLY HAS NO INPUT KEYWORD.
    IT IS ALLOCATED ONCE PER NODE, OUT OF THE OPERATING SYSTEM'S SYSV MEMORY.
 3. THIS VALUE INCLUDES THE INTEGRAL TRANSFORMATION'S DISTRIBUTED MEMORY,
    SO MEMDDI=      1 SHOULD BE ENOUGH FOR THE ENTIRE JOB.
    IT IS ALLOCATED ONLY ONCE, FOR THE WHOLE RUN, SPREAD ACROSS ALL NODES.

 THIS JOB IS USING   4 NODES, WITH  1 PROCESSES/NODE,
 USING INPUT MEMORY VALUES MWORDS=      80 AND MEMDDI=      20
 MOST EFFICIENT VALUES ARE MWORDS=       1 AND MEMDDI=       1
 THE INPUT VALUES MEANS EACH SMP NODE WILL ALLOCATE      11 MBYTES OF MEMORY.

 DDI: Creating Array [5] - 168 x 168 = 28224 words.
 DDI: Creating Array [6] - 168 x 168 = 28224 words.
 DDI: Creating Array [7] - 168 x 168 = 28224 words.
 DDI: Creating Array [8] - 168 x 168 = 28224 words.
 DDI: Creating Array [9] - 168 x 168 = 28224 words.
 DDI: Creating Array [10] - 784 x 36 = 28224 words.
 DDI: Creating Array [11] - 784 x 36 = 28224 words.
 INITIALIZING INTEGRALS FOR CCSD
 RUNNING PROCESS-BASED CCSD ITERATIONS
 DDI: Creating Array [12] - 1444 x 21 = 30324 words.
 ITER:  1   CCSD    CORR. ENERGY:  -0.2690027462   CONV.: -2.0336E-02

 ITER  CPU TIME: TOTAL=     0.4  FORMULAE IN AO,MO BASIS=     0.3     0.1
 ITER WALL TIME: TOTAL=     0.4  FORMULAE IN AO,MO BASIS=     0.3     0.1
 IT IS BENEFICIAL TO ADD MORE PROCESSORS IF THE SCALABLE AO CONTRIBUTION'S TIME
 IS CONSIDERABLY LARGER THAN THE LESS SCALABLE MO CONTRIBUTION'S TIME.

 ITER:  2   CCSD    CORR. ENERGY:  -0.2747200465   CONV.: -1.2493E-02
 ITER:  3   CCSD    CORR. ENERGY:  -0.2773558895   CONV.: -3.6345E-03
 ITER:  4   CCSD    CORR. ENERGY:  -0.2775953880   CONV.: -2.3952E-02
 ITER:  5   CCSD    CORR. ENERGY:  -0.2776124304   CONV.: -2.3800E-02
 ITER:  6   CCSD    CORR. ENERGY:  -0.2782046513   CONV.: -1.9069E-02
 ITER:  7   CCSD    CORR. ENERGY:  -0.2799103099   CONV.: -4.8001E-03
 ITER:  8   CCSD    CORR. ENERGY:  -0.2805065700   CONV.:  1.8918E-04
 ITER:  9   CCSD    CORR. ENERGY:  -0.2804838646   CONV.:  6.9356E-06
 ITER: 10   CCSD    CORR. ENERGY:  -0.2804853155   CONV.:  1.7042E-06
 ITER: 11   CCSD    CORR. ENERGY:  -0.2804854185   CONV.:  5.9014E-07
 ITER: 12   CCSD    CORR. ENERGY:  -0.2804854703   CONV.: -1.6615E-07
 ITER: 13   CCSD    CORR. ENERGY:  -0.2804854595   CONV.: -7.0081E-08
 ITER: 14   CCSD    CORR. ENERGY:  -0.2804854545   CONV.: -7.0081E-08

     THE    CCSD     ITERATIONS HAVE CONVERGED

    MBPT(2) CORRELATION ENERGY:  -0.2522637135
    CCSD    CORRELATION ENERGY:  -0.2804854545

 T1 DIAGNOSTIC        =     0.01096620
 NORM OF THE T1 VECTOR=     0.03798804
 NORM OF THE T2 VECTOR=     0.33090108

 THE FIVE LARGEST T1 AMPLITUDES ARE:
 T1 AMPLITUDE IS -0.030191 FOR I=   8 -> A=  17
 T1 AMPLITUDE IS -0.012381 FOR I=   8 -> A=  27
 T1 AMPLITUDE IS  0.009348 FOR I=   5 -> A=  21
 T1 AMPLITUDE IS -0.008829 FOR I=   7 -> A=  22
 T1 AMPLITUDE IS  0.007854 FOR I=   5 -> A=  11

 THE FIVE LARGEST SPIN-UNIQUE T2 AMPLITUDES ARE:
 T2 AMPLITUDE IS -0.149169 FOR I,J=   8   8 -> A,B=   9   9
 T2 AMPLITUDE IS  0.042152 FOR I,J=   8   8 -> A,B=   9  19
 T2 AMPLITUDE IS -0.026324 FOR I,J=   5   5 -> A,B=  11  11
 T2 AMPLITUDE IS -0.024631 FOR I,J=   7   7 -> A,B=  11  11
 T2 AMPLITUDE IS -0.023969 FOR I,J=   4   8 -> A,B=  10   9
 PRINTED T2(I-ALPHA,J-BETA -> A-ALPHA,B-BETA) VALUES
 EQUAL   T2(J-ALPHA,I-BETA -> B-ALPHA,A-BETA) AMPLITUDES.

 ....... DONE WITH CC AMPLITUDE ITERATIONS .......
 CPU     0: STEP CPU TIME=     5.76 TOTAL CPU TIME=       21.4 (    0.4 MIN)
 TOTAL WALL CLOCK TIME=       21.4 SECONDS, CPU UTILIZATION IS 100.00%

 RUNNING THE DISTRIBUTED DATA, PARALLEL TRIPLES CORRECTION...

   REPLICATED MEMORY REQUIRED FOR TRIPLES IS         1120 WORDS.
       SHARED MEMORY REQUIRED FOR TRIPLES IS       101984 WORDS.
  DISTRIBUTED MEMORY IS ALREADY ALLOCATED ABOVE.


                      SUMMARY OF RESULTS

      REFERENCE ENERGY:      -78.0298712953
        MBPT(2) ENERGY:      -78.2821350089   CORR.E=  -0.2522637135
        CCSD    ENERGY:      -78.3103567498   CORR.E=  -0.2804854545
        CCSD[T] ENERGY:      -78.3198839569   CORR.E=  -0.2900126616
        CCSD(T) ENERGY:      -78.3194187520   CORR.E=  -0.2895474567

 THE FOLLOWING METHOD AND ENERGY WILL BE CONSIDERED THE HIGHEST LEVEL RESULT:
 COUPLED-CLUSTER ENERGY E(   CCSD(T)) =      -78.3194187520

 ..... DONE WITH CC NON-ITERATIVE TRIPLES CORRECTIONS .....
 CPU     0: STEP CPU TIME=     0.12 TOTAL CPU TIME=       21.5 (    0.4 MIN)
 TOTAL WALL CLOCK TIME=       21.5 SECONDS, CPU UTILIZATION IS 100.00%

 ************************************************
 * CALCULATING ENERGY     3 FOR NUMERIC HESSIAN *
 ************************************************
 MOVING ATOM   2 COORDINATE Y TO        0.0100000000, AND
 MOVING ATOM   1 COORDINATE Y TO        0.0100000000 A.U.
 ...... END OF ONE-ELECTRON INTEGRALS ......
 CPU     0: STEP CPU TIME=     0.05 TOTAL CPU TIME=       21.6 (    0.4 MIN)
 TOTAL WALL CLOCK TIME=       21.6 SECONDS, CPU UTILIZATION IS 100.00%
  ...... END OF TWO-ELECTRON INTEGRALS .....
 CPU     0: STEP CPU TIME=     0.00 TOTAL CPU TIME=       21.6 (    0.4 MIN)
 TOTAL WALL CLOCK TIME=       21.6 SECONDS, CPU UTILIZATION IS 100.00%

          --------------------------
                 RHF SCF CALCULATION
          --------------------------
     DENSITY MATRIX CONV=  2.00E-06

 DIRECT SCF CALCULATION, SCHWRZ=T   FDIFF=T,  DIRTHR=  0.00E+00 NITDIR=10

                                                                                   NONZERO     BLOCKS
 ITER EX DEM     TOTAL ENERGY        E CHANGE  DENSITY CHANGE     ORB. GRAD      INTEGRALS    SKIPPED
   1  0  0      -78.0298205661   -78.0298205661   0.001337606   0.000000000         125881          5
          ---------------START SECOND ORDER SCF---------------
   2  1  0      -78.0298374772    -0.0000169111   0.000361160   0.000315677         125780         79
   3  2  0      -78.0298388933    -0.0000014161   0.000182201   0.000110435         125576        158
   4  3  0      -78.0298390653    -0.0000001720   0.000024333   0.000007928         125470        216
   5  4  0      -78.0298390658    -0.0000000005   0.000007364   0.000001538         124285        540
[...]
 ITER: 12   CCSD    CORR. ENERGY:  -0.2803725541   CONV.: -1.2910E-07
 ITER: 13   CCSD    CORR. ENERGY:  -0.2803725447   CONV.: -3.8350E-08
 ITER: 14   CCSD    CORR. ENERGY:  -0.2803725404   CONV.: -3.8350E-08

     THE    CCSD     ITERATIONS HAVE CONVERGED

    MBPT(2) CORRELATION ENERGY:  -0.2521792308
    CCSD    CORRELATION ENERGY:  -0.2803725404

 T1 DIAGNOSTIC        =     0.01095891
 NORM OF THE T1 VECTOR=     0.03796276
 NORM OF THE T2 VECTOR=     0.33064634

 THE FIVE LARGEST T1 AMPLITUDES ARE:
 T1 AMPLITUDE IS  0.030197 FOR I=   8 -> A=  17
 T1 AMPLITUDE IS -0.012376 FOR I=   8 -> A=  27
 T1 AMPLITUDE IS  0.009315 FOR I=   5 -> A=  21
 T1 AMPLITUDE IS  0.008796 FOR I=   7 -> A=  22
 T1 AMPLITUDE IS -0.007763 FOR I=   5 -> A=  11

 THE FIVE LARGEST SPIN-UNIQUE T2 AMPLITUDES ARE:
 T2 AMPLITUDE IS -0.149126 FOR I,J=   8   8 -> A,B=   9   9
 T2 AMPLITUDE IS  0.042138 FOR I,J=   8   8 -> A,B=   9  19
 T2 AMPLITUDE IS -0.026168 FOR I,J=   5   5 -> A,B=  11  11
 T2 AMPLITUDE IS -0.024450 FOR I,J=   7   7 -> A,B=  11  11
 T2 AMPLITUDE IS  0.023967 FOR I,J=   4   8 -> A,B=  10   9
 PRINTED T2(I-ALPHA,J-BETA -> A-ALPHA,B-BETA) VALUES
 EQUAL   T2(J-ALPHA,I-BETA -> B-ALPHA,A-BETA) AMPLITUDES.

 ....... DONE WITH CC AMPLITUDE ITERATIONS .......
 CPU     0: STEP CPU TIME=     6.60 TOTAL CPU TIME=      737.6 (   12.3 MIN)
 TOTAL WALL CLOCK TIME=      737.6 SECONDS, CPU UTILIZATION IS 100.00%

 RUNNING THE DISTRIBUTED DATA, PARALLEL TRIPLES CORRECTION...

   REPLICATED MEMORY REQUIRED FOR TRIPLES IS         1120 WORDS.
       SHARED MEMORY REQUIRED FOR TRIPLES IS       101984 WORDS.
  DISTRIBUTED MEMORY IS ALREADY ALLOCATED ABOVE.


                      SUMMARY OF RESULTS

      REFERENCE ENERGY:      -78.0299827781
        MBPT(2) ENERGY:      -78.2821620090   CORR.E=  -0.2521792308
        CCSD    ENERGY:      -78.3103553185   CORR.E=  -0.2803725404
        CCSD[T] ENERGY:      -78.3198686056   CORR.E=  -0.2898858274
        CCSD(T) ENERGY:      -78.3194048881   CORR.E=  -0.2894221100

 THE FOLLOWING METHOD AND ENERGY WILL BE CONSIDERED THE HIGHEST LEVEL RESULT:
 COUPLED-CLUSTER ENERGY E(   CCSD(T)) =      -78.3194048881

 ..... DONE WITH CC NON-ITERATIVE TRIPLES CORRECTIONS .....
 CPU     0: STEP CPU TIME=     0.12 TOTAL CPU TIME=      737.7 (   12.3 MIN)
 TOTAL WALL CLOCK TIME=      737.7 SECONDS, CPU UTILIZATION IS 100.00%
 ...... END OF NUMERICAL HESSIAN CALCULATION ......

          ---------------
          ENERGY GRADIENT
          ---------------

 UNITS ARE HARTREE/BOHR    E'X               E'Y               E'Z 
    1 CARBON           0.000000000       0.000000000       0.000101362
    2 CARBON           0.000000000       0.000000000      -0.000101362
    3 HYDROGEN         0.000000000       0.000016337       0.000011976
    4 HYDROGEN         0.000000000      -0.000016337      -0.000011976
    5 HYDROGEN         0.000000000       0.000016337      -0.000011976
    6 HYDROGEN         0.000000000      -0.000016337       0.000011976

          -------------------------------
          CARTESIAN FORCE CONSTANT MATRIX
          -------------------------------

                                   1                          2
                               CARBON                     CARBON    
                          X        Y        Z        X        Y        Z
  1   CARBON       X 0.098772 0.000000 0.000000-0.038631 0.000000 0.000000
                   Y 0.000000 0.645311 0.000000 0.000000-0.117024 0.000000
                   Z 0.000000 0.000000 0.853296 0.000000 0.000000-0.561285
  2   CARBON       X-0.038631 0.000000 0.000000 0.098772 0.000000 0.000000
                   Y 0.000000-0.117024 0.000000 0.000000 0.645311 0.000000
                   Z 0.000000 0.000000-0.561285 0.000000 0.000000 0.853296
  3   HYDROGEN     X 0.003491 0.000000 0.000000-0.033563 0.000000 0.000000
                   Y 0.000000 0.004713-0.003203 0.000000-0.268857 0.125988
                   Z 0.000000 0.030128-0.012302 0.000000 0.121526-0.133705
  4   HYDROGEN     X-0.033563 0.000000 0.000000 0.003491 0.000000 0.000000
                   Y 0.000000-0.268857 0.125988 0.000000 0.004713-0.003203
                   Z 0.000000 0.121526-0.133705 0.000000 0.030128-0.012302
  5   HYDROGEN     X-0.033563 0.000000 0.000000 0.003491 0.000000 0.000000
                   Y 0.000000-0.268857-0.125988 0.000000 0.004713 0.003203
                   Z 0.000000-0.121526-0.133705 0.000000-0.030128-0.012302
  6   HYDROGEN     X 0.003491 0.000000 0.000000-0.033563 0.000000 0.000000
                   Y 0.000000 0.004713 0.003203 0.000000-0.268857-0.125988
                   Z 0.000000-0.030128-0.012302 0.000000-0.121526-0.133705

                                   3                          4
                               HYDROGEN                   HYDROGEN  
                          X        Y        Z        X        Y        Z
  3   HYDROGEN     X 0.022885 0.000000 0.000000 0.012875 0.000000 0.000000
                   Y 0.000000 0.278026-0.136438 0.000000 0.001408-0.000781
                   Z 0.000000-0.136438 0.139215 0.000000-0.000781-0.005033
  4   HYDROGEN     X 0.012875 0.000000 0.000000 0.022885 0.000000 0.000000
                   Y 0.000000 0.001408-0.000781 0.000000 0.278026-0.136438
                   Z 0.000000-0.000781-0.005033 0.000000-0.136438 0.139215
  5   HYDROGEN     X-0.007838 0.000000 0.000000 0.002150 0.000000 0.000000
                   Y 0.000000 0.001218-0.000204 0.000000-0.016508-0.014229
                   Z 0.000000 0.000204 0.001267 0.000000 0.014229 0.010558
  6   HYDROGEN     X 0.002150 0.000000 0.000000-0.007838 0.000000 0.000000
                   Y 0.000000-0.016508-0.014229 0.000000 0.001218-0.000204
                   Z 0.000000 0.014229 0.010558 0.000000 0.000204 0.001267

                                   5                          6
                               HYDROGEN                   HYDROGEN  
                          X        Y        Z        X        Y        Z
  5   HYDROGEN     X 0.022885 0.000000 0.000000 0.012875 0.000000 0.000000
                   Y 0.000000 0.278026 0.136438 0.000000 0.001408 0.000781
                   Z 0.000000 0.136438 0.139215 0.000000 0.000781-0.005033
  6   HYDROGEN     X 0.012875 0.000000 0.000000 0.022885 0.000000 0.000000
                   Y 0.000000 0.001408 0.000781 0.000000 0.278026 0.136438
                   Z 0.000000 0.000781-0.005033 0.000000 0.136438 0.139215

          --------------------------------------------------------
          NORMAL COORDINATE ANALYSIS IN THE HARMONIC APPROXIMATION
          --------------------------------------------------------

          ATOMIC WEIGHTS (AMU)

    1     CARBON           12.00000
    2     CARBON           12.00000
    3     HYDROGEN          1.00782
    4     HYDROGEN          1.00782
    5     HYDROGEN          1.00782
    6     HYDROGEN          1.00782

 MODES 1 TO 6 ARE TAKEN AS ROTATIONS AND TRANSLATIONS.

 ANALYZING SYMMETRY OF NORMAL MODES...

 --- SYMMETRY FOR NORMAL MODES ---
 INCLUDING TRANSLATION AND ROTATION
    3*AG     1*AU     2*B3U    3*B3G    1*B1G    3*B1U    3*B2U    2*B2G 
 EXCLUDING TRANSLATION AND ROTATION (SAYVETZ < 0.01)
    3*AG     1*AU     1*B3U    2*B3G    0*B1G    2*B1U    2*B2U    1*B2G 

     FREQUENCIES IN CM**-1, IR INTENSITIES IN DEBYE**2/AMU-ANGSTROM**2,
     REDUCED MASSES IN AMU.

                          1           2           3           4           5
       FREQUENCY:         3.05        1.79        1.27        2.47       11.27  
        SYMMETRY:         B3U         B2U         B1U         B3G         B2G 
    REDUCED MASS:      4.67179     4.67201     4.67196     1.94900     2.40463

  1   CARBON       X  0.18887617  0.00000000  0.00000000  0.00000000  0.16254994
                   Y  0.00000000  0.18887741  0.00000000 -0.14820838  0.00000000
                   Z  0.00000000  0.00000000  0.18887713  0.00000000  0.00000000
  2   CARBON       X  0.18887617  0.00000000  0.00000000  0.00000000 -0.16254994
                   Y  0.00000000  0.18887741  0.00000000  0.14820838  0.00000000
                   Z  0.00000000  0.00000000  0.18887713  0.00000000  0.00000000
  3   HYDROGEN     X  0.18887986  0.00000000  0.00000000  0.00000000 -0.30125563
                   Y  0.00000000  0.18887244 -0.00000115  0.27478854  0.00000000
                   Z  0.00000000 -0.00000814  0.18887413  0.20439946  0.00000000
  4   HYDROGEN     X  0.18887986  0.00000000  0.00000000  0.00000000  0.30125563
                   Y  0.00000000  0.18887244 -0.00000115 -0.27478854  0.00000000
                   Z  0.00000000 -0.00000814  0.18887413 -0.20439946  0.00000000
  5   HYDROGEN     X  0.18887986  0.00000000  0.00000000  0.00000000  0.30125563
                   Y  0.00000000  0.18887244  0.00000115 -0.27478854  0.00000000
                   Z  0.00000000  0.00000814  0.18887413  0.20439946  0.00000000
  6   HYDROGEN     X  0.18887986  0.00000000  0.00000000  0.00000000 -0.30125563
                   Y  0.00000000  0.18887244  0.00000115  0.27478854  0.00000000
                   Z  0.00000000  0.00000814  0.18887413 -0.20439946  0.00000000

 TRANS. SAYVETZ    X  5.29445937  0.00000000  0.00000000  0.00000000  0.00000000
                   Y  0.00000000  5.29445937  0.00000000  0.00000000  0.00000000
                   Z  0.00000000  0.00000000  5.29445937  0.00000000  0.00000000
               TOTAL  5.29445937  5.29445937  5.29445937  0.00000000  0.00000000

   ROT. SAYVETZ    X  0.00000000  0.00000000  0.00000000 -8.56668777  0.00000000
                   Y  0.00000000  0.00000000  0.00000000  0.00000000 -7.81229151
                   Z  0.00000000  0.00000000  0.00000000  0.00000000  0.00000000
               TOTAL  0.00000000  0.00000000  0.00000000  8.56668777  7.81229151

                          6           7           8           9          10
       FREQUENCY:        23.79      840.67      909.28      959.63     1042.46  
        SYMMETRY:         B1G         B2U         B2G         B3U         AU  
    REDUCED MASS:      1.00782     1.04258     1.51583     1.16074     1.00783

  1   CARBON       X  0.00000000  0.00000000  0.12346734 -0.07741099  0.00000000
                   Y  0.00000000  0.03893926  0.00000000  0.00000000  0.00000000
                   Z  0.00000000  0.00000000  0.00000000  0.00000000  0.00000000
  2   CARBON       X  0.00000000  0.00000000 -0.12346734 -0.07741099  0.00000000
                   Y  0.00000000  0.03893926  0.00000000  0.00000000  0.00000000
                   Z  0.00000000  0.00000000  0.00000000  0.00000000  0.00000000
  3   HYDROGEN     X -0.49805516  0.00000000  0.39661567  0.46085067  0.49805516
                   Y  0.00000000 -0.23184618  0.00000000  0.00000000  0.00000000
                   Z  0.00000000 -0.43044085  0.00000000  0.00000000  0.00000000
  4   HYDROGEN     X  0.49805516  0.00000000 -0.39661567  0.46085067  0.49805516
                   Y  0.00000000 -0.23184618  0.00000000  0.00000000  0.00000000
                   Z  0.00000000 -0.43044085  0.00000000  0.00000000  0.00000000
  5   HYDROGEN     X -0.49805516  0.00000000 -0.39661567  0.46085067 -0.49805516
                   Y  0.00000000 -0.23184618  0.00000000  0.00000000  0.00000000
                   Z  0.00000000  0.43044085  0.00000000  0.00000000  0.00000000
  6   HYDROGEN     X  0.49805516  0.00000000  0.39661567  0.46085067 -0.49805516
                   Y  0.00000000 -0.23184618  0.00000000  0.00000000  0.00000000
                   Z  0.00000000  0.43044085  0.00000000  0.00000000  0.00000000

 TRANS. SAYVETZ    X  0.00000000  0.00000000  0.00000000 -0.00003638  0.00000000
                   Y  0.00000000 -0.00009933  0.00000000  0.00000000  0.00000000
                   Z  0.00000000  0.00000000  0.00000000  0.00000000  0.00000000
               TOTAL  0.00000000  0.00009933  0.00000000  0.00003638  0.00000000

   ROT. SAYVETZ    X  0.00000000  0.00000000  0.00000000  0.00000000  0.00000000
                   Y  0.00000000  0.00000000  0.00119432  0.00000000  0.00000000
                   Z -3.51514437  0.00000000  0.00000000  0.00000000  0.00000000
               TOTAL  3.51514437  0.00000000  0.00119432  0.00000000  0.00000000

                         11          12          13          14          15
       FREQUENCY:      1251.29     1388.47     1502.67     1696.06     3152.89  
        SYMMETRY:         B3G         AG          B1U         AG          B1U 
    REDUCED MASS:      1.51837     1.31690     1.11212     2.65126     1.04758

  1   CARBON       X  0.00000000  0.00000000  0.00000000  0.00000000  0.00000000
                   Y -0.12367187  0.00000000  0.00000000  0.00000000  0.00000000
                   Z  0.00000000  0.10332320 -0.06531348 -0.16791652 -0.04154812
  2   CARBON       X  0.00000000  0.00000000  0.00000000  0.00000000  0.00000000
                   Y  0.12367187  0.00000000  0.00000000  0.00000000  0.00000000
                   Z  0.00000000 -0.10332320 -0.06531348  0.16791652 -0.04154812
  3   HYDROGEN     X  0.00000000  0.00000000  0.00000000  0.00000000  0.00000000
                   Y -0.11507681 -0.15928244  0.26732252 -0.22807978 -0.42023519
                   Z -0.37915747 -0.39891261  0.38884603 -0.16785804  0.24735454
  4   HYDROGEN     X  0.00000000  0.00000000  0.00000000  0.00000000  0.00000000
                   Y  0.11507681  0.15928244  0.26732252  0.22807978 -0.42023519
                   Z  0.37915747  0.39891261  0.38884603  0.16785804  0.24735454
  5   HYDROGEN     X  0.00000000  0.00000000  0.00000000  0.00000000  0.00000000
                   Y  0.11507681 -0.15928244 -0.26732252 -0.22807978  0.42023519
                   Z -0.37915747  0.39891261  0.38884603  0.16785804  0.24735454
  6   HYDROGEN     X  0.00000000  0.00000000  0.00000000  0.00000000  0.00000000
                   Y -0.11507681  0.15928244 -0.26732252  0.22807978  0.42023519
                   Z  0.37915747 -0.39891261  0.38884603 -0.16785804  0.24735454

 TRANS. SAYVETZ    X  0.00000000  0.00000000  0.00000000  0.00000000  0.00000000
                   Y  0.00000000  0.00000000  0.00000000  0.00000000  0.00000000
                   Z  0.00000000  0.00000000  0.00003144  0.00000000  0.00000553
               TOTAL  0.00000000  0.00000000  0.00003144  0.00000000  0.00000553

   ROT. SAYVETZ    X -0.00072330  0.00000000  0.00000000  0.00000000  0.00000000
                   Y  0.00000000  0.00000000  0.00000000  0.00000000  0.00000000
                   Z  0.00000000  0.00000000  0.00000000  0.00000000  0.00000000
               TOTAL  0.00072330  0.00000000  0.00000000  0.00000000  0.00000000

                         16          17          18
       FREQUENCY:      3170.76     3231.02     3254.30  
        SYMMETRY:         AG          B3G         B2U 
    REDUCED MASS:      1.07381     1.11592     1.11781

  1   CARBON       X  0.00000000  0.00000000  0.00000000
                   Y  0.00000000 -0.06637930 -0.06690085
                   Z -0.05286799  0.00000000  0.00000000
  2   CARBON       X  0.00000000  0.00000000  0.00000000
                   Y  0.00000000  0.06637930 -0.06690085
                   Z  0.05286799  0.00000000  0.00000000
  3   HYDROGEN     X  0.00000000  0.00000000  0.00000000
                   Y  0.41311942 -0.39913346  0.39828820
                   Z -0.24647788  0.25003882 -0.25055860
  4   HYDROGEN     X  0.00000000  0.00000000  0.00000000
                   Y -0.41311942  0.39913346  0.39828820
                   Z  0.24647788 -0.25003882 -0.25055860
  5   HYDROGEN     X  0.00000000  0.00000000  0.00000000
                   Y  0.41311942  0.39913346  0.39828820
                   Z  0.24647788  0.25003882  0.25055860
  6   HYDROGEN     X  0.00000000  0.00000000  0.00000000
                   Y -0.41311942 -0.39913346  0.39828820
                   Z -0.24647788 -0.25003882  0.25055860

 TRANS. SAYVETZ    X  0.00000000  0.00000000  0.00000000
                   Y  0.00000000  0.00000000 -0.00000126
                   Z  0.00000000  0.00000000  0.00000000
               TOTAL  0.00000000  0.00000000  0.00000126

   ROT. SAYVETZ    X  0.00000000  0.00006525  0.00000000
                   Y  0.00000000  0.00000000  0.00000000
                   Z  0.00000000  0.00000000  0.00000000
               TOTAL  0.00000000  0.00006525  0.00000000

 REFERENCE ON SAYVETZ CONDITIONS - A. SAYVETZ, J.CHEM.PHYS., 7, 383-389(1939).

 NOTE - THE MODES J,K ARE ORTHONORMALIZED ACCORDING TO
 SUM ON I   M(I) * (X(I,J)*X(I,K) + Y(I,J)*Y(I,K) + Z(I,J)*Z(I,K)) = DELTA(J,K)

     -------------------------------
     THERMOCHEMISTRY AT T=  298.15 K
     -------------------------------

 USING IDEAL GAS, RIGID ROTOR, HARMONIC NORMAL MODE APPROXIMATIONS.
 P=  1.01325E+05 PASCAL.
 ALL FREQUENCIES ARE SCALED BY   1.00000
 THE MOMENTS OF INERTIA ARE (IN AMU*BOHR**2)
     12.35624    61.03190    73.38814
 THE ROTATIONAL SYMMETRY NUMBER IS  4.0
 THE ROTATIONAL CONSTANTS ARE (IN GHZ)
    145.92532    29.54337    24.56920
 THE HARMONIC ZERO POINT ENERGY IS (SCALED BY   1.000)
        0.051030 HARTREE/MOLECULE    11199.749697 CM**-1/MOLECULE 
       32.021723 KCAL/MOL              133.978891 KJ/MOL

               Q               LN Q
 ELEC.     1.00000E+00       0.000000
 TRANS.    5.83336E+06      15.579103
 ROT.      6.65757E+02       6.500925
 VIB.      1.05224E+00       0.050918
 TOT.      4.08647E+09      22.130947

              E         H         G         CV        CP        S
           KJ/MOL    KJ/MOL    KJ/MOL   J/MOL-K   J/MOL-K   J/MOL-K
 ELEC.      0.000     0.000     0.000     0.000     0.000     0.000
 TRANS.     3.718     6.197   -38.620    12.472    20.786   150.317
 ROT.       3.718     3.718   -16.115    12.472    12.472    66.523
 VIB.     134.563   134.563   133.853     9.311     9.311     2.381
 TOTAL    141.999   144.478    79.118    34.255    42.569   219.221
 VIB. THERMAL CORRECTION E(T)-E(0) = H(T)-H(0) =   583.663 J/MOL

              E         H         G         CV        CP        S
         KCAL/MOL  KCAL/MOL  KCAL/MOL CAL/MOL-K CAL/MOL-K CAL/MOL-K
 ELEC.      0.000     0.000     0.000     0.000     0.000     0.000
 TRANS.     0.889     1.481    -9.230     2.981     4.968    35.927
 ROT.       0.889     0.889    -3.852     2.981     2.981    15.899
 VIB.      32.161    32.161    31.992     2.225     2.225     0.569
 TOTAL     33.939    34.531    18.910     8.187    10.174    52.395
 VIB. THERMAL CORRECTION E(T)-E(0) = H(T)-H(0) =   139.499 CAL/MOL
 ......END OF NORMAL COORDINATE ANALYSIS......
 CPU     0: STEP CPU TIME=     0.05 TOTAL CPU TIME=      737.8 (   12.3 MIN)
 TOTAL WALL CLOCK TIME=      737.8 SECONDS, CPU UTILIZATION IS 100.00%
                   580000  WORDS OF DYNAMIC MEMORY USED
 EXECUTION OF GAMESS TERMINATED NORMALLY Fri Aug 23 15:25:30 2019
 DDI: 1101656 bytes (1.1 MB / 0 MWords) used by master data server.

 ----------------------------------------
 CPU timing information for all processes
 ========================================
 0: 357.273490 + 29.593389 = 386.866879
 1: 401.764975 + 31.559002 = 433.323977
 2: 343.170999 + 24.086554 = 367.257553
 3: 369.238766 + 29.343788 = 398.582554
 4: 316.931631 + 31.012998 = 347.944629
 5: 285.965433 + 27.112973 = 313.078406
 6: 299.397119 + 25.490563 = 324.887682
 7: 275.591366 + 25.552963 = 301.144329
 ----------------------------------------
           Disk usage (in bytes)       
 ========================================
 ----------------------------------------
            Local date and time          
 ========================================
23.08.2019 - 15:25:36.08                          
