          ******************************************************
          *         GAMESS VERSION =  1 MAY 2013 (R1)          *
          *             FROM IOWA STATE UNIVERSITY             *
          * M.W.SCHMIDT, K.K.BALDRIDGE, J.A.BOATZ, S.T.ELBERT, *
          *   M.S.GORDON, J.H.JENSEN, S.KOSEKI, N.MATSUNAGA,   *
          *          K.A.NGUYEN, S.J.SU, T.L.WINDUS,           *
          *       TOGETHER WITH M.DUPUIS, J.A.MONTGOMERY       *
          *         J.COMPUT.CHEM.  14, 1347-1363(1993)        *
          *************** 64 BIT WINDOWS VERSION ***************

  SINCE 1993, STUDENTS AND POSTDOCS WORKING AT IOWA STATE UNIVERSITY
  AND ALSO IN THEIR VARIOUS JOBS AFTER LEAVING ISU HAVE MADE IMPORTANT
  CONTRIBUTIONS TO THE CODE:
     IVANA ADAMOVIC, CHRISTINE AIKENS, YURI ALEXEEV, POOJA ARORA,
     ANDREY ASADCHEV, ROB BELL, PRADIPTA BANDYOPADHYAY, JONATHAN BENTZ,
     BRETT BODE, GALINA CHABAN, WEI CHEN, CHEOL HO CHOI, PAUL DAY,
     ALBERT DEFUSCO, TIM DUDLEY, DMITRI FEDOROV, GRAHAM FLETCHER,
     MARK FREITAG, KURT GLAESEMANN, DAN KEMP, GRANT MERRILL,
     NORIYUKI MINEZAWA, JONATHAN MULLIN, TAKESHI NAGATA,
     SEAN NEDD, HEATHER NETZLOFF, BOSILJKA NJEGIC, RYAN OLSON, MIKE PAK,
     JIM SHOEMAKER, LYUDMILA SLIPCHENKO, SAROM SOK, JIE SONG,
     TETSUYA TAKETSUGU, SIMON WEBB, SOOHAENG YOO, FEDERICO ZAHARIEV

  ADDITIONAL CODE HAS BEEN PROVIDED BY COLLABORATORS IN OTHER GROUPS:
     IOWA STATE UNIVERSITY:
          JOE IVANIC, LAIMUTIS BYTAUTAS, KLAUS RUEDENBERG
     UNIVERSITY OF TOKYO: KIMIHIKO HIRAO, TAKAHITO NAKAJIMA,
          TAKAO TSUNEDA, MUNEAKI KAMIYA, SUSUMU YANAGISAWA,
          KIYOSHI YAGI, MAHITO CHIBA, SEIKEN TOKURA, NAOAKI KAWAKAMI
     UNIVERSITY OF AARHUS: FRANK JENSEN
     UNIVERSITY OF IOWA: VISVALDAS KAIRYS, HUI LI
     NATIONAL INST. OF STANDARDS AND TECHNOLOGY: WALT STEVENS, DAVID GARMER
     UNIVERSITY OF PISA: BENEDETTA MENNUCCI, JACOPO TOMASI
     UNIVERSITY OF MEMPHIS: HENRY KURTZ, PRAKASHAN KORAMBATH
     UNIVERSITY OF ALBERTA: TOBY ZENG, MARIUSZ KLOBUKOWSKI
     UNIVERSITY OF NEW ENGLAND: MARK SPACKMAN
     MIE UNIVERSITY: HIROAKI UMEDA
     MICHIGAN STATE UNIVERSITY:
          KAROL KOWALSKI, MARTA WLOCH, JEFFREY GOUR, JESSE LUTZ,
          WEI LI, PIOTR PIECUCH
     UNIVERSITY OF SILESIA: MONIKA MUSIAL, STANISLAW KUCHARSKI
     FACULTES UNIVERSITAIRES NOTRE-DAME DE LA PAIX:
          OLIVIER QUINET, BENOIT CHAMPAGNE
     UNIVERSITY OF CALIFORNIA - SANTA BARBARA: BERNARD KIRTMAN
     INSTITUTE FOR MOLECULAR SCIENCE:
          KAZUYA ISHIMURA, MICHIO KATOUDA, AND SHIGERU NAGASE
     UNIVERSITY OF NOTRE DAME: DAN CHIPMAN
     KYUSHU UNIVERSITY:
          HARUYUKI NAKANO,
          FENG LONG GU, JACEK KORCHOWIEC, MARCIN MAKOWSKI, AND YURIKO AOKI,
          HIROTOSHI MORI AND EISAKU MIYOSHI
     PENNSYLVANIA STATE UNIVERSITY:
          TZVETELIN IORDANOV, CHET SWALINA, JONATHAN SKONE,
          SHARON HAMMES-SCHIFFER
     WASEDA UNIVERSITY:
          MASATO KOBAYASHI, TOMOKO AKAMA, TSUGUKI TOUMA,
          TAKESHI YOSHIKAWA, YASUHIRO IKABATA, HIROMI NAKAI
     NANJING UNIVERSITY: SHUHUA LI
     UNIVERSITY OF NEBRASKA:
          PEIFENG SU, DEJUN SI, NANDUN THELLAMUREGE, YALI WANG, HUI LI
     UNIVERSITY OF ZURICH:
          ROBERTO PEVERATI, KIM BALDRIDGE
     N. COPERNICUS UNIVERSITY AND JACKSON STATE UNIVERSITY:
          MARIA BARYSZ


 PARALLEL VERSION RUNNING ON     4 PROCESSORS IN     4 NODES.

 EXECUTION OF GAMESS BEGUN Fri Aug 23 15:03:14 2019

            ECHO OF THE FIRST FEW INPUT CARDS -
 INPUT CARD> $CONTRL  RUNTYP=optimize cctyp=ccsd(t)                                         
 INPUT CARD> ispher=+1                                                                      
 INPUT CARD> numgrd=.t.                                                                     
 INPUT CARD>! exetyp=check                                                                  
 INPUT CARD> $END                                                                           
 INPUT CARD> $system TIMLIM=9000                                                            
 INPUT CARD> mwords=80 memddi=20 $end                                                       
 INPUT CARD> $BASIS  GBASIS=N31 NGAUSS=6 ndfunc=1 $END                                      
 INPUT CARD>! $BASIS  GBASIS=ccd $END                                                       
 INPUT CARD> $force method=fullnum $end                                                     
 INPUT CARD> $scf dirscf=.t. $end                                                           
 INPUT CARD>                                                                                
 INPUT CARD> $DATA                                                                          
 INPUT CARD> C2H4                                                                           
 INPUT CARD> dnh 2                                                                          
 INPUT CARD>                                                                                
 INPUT CARD> CARBON      6.0   0.0000000000   0.0000000000   0.7                            
 INPUT CARD> HYDROGEN    1.0   0.0000000000   0.6            1.2                            
 INPUT CARD> $END                                                                           
 INPUT CARD>                                                                                
   80000000 WORDS OF MEMORY AVAILABLE

     BASIS OPTIONS
     -------------
     GBASIS=N31          IGAUSS=       6      POLAR=POPN31  
     NDFUNC=       1     NFFUNC=       0     DIFFSP=       F
     NPFUNC=       0      DIFFS=       F     BASNAM=        


     RUN TITLE
     ---------
  C2H4                                                                           

 THE POINT GROUP OF THE MOLECULE IS DNH     
 THE ORDER OF THE PRINCIPAL AXIS IS     2

 ATOM      ATOMIC                      COORDINATES (BOHR)
           CHARGE         X                   Y                   Z
 CARBON      6.0     0.0000000000        0.0000000000       -1.3228081914
 CARBON      6.0     0.0000000000        0.0000000000        1.3228081914
 HYDROGEN    1.0     0.0000000000       -1.1338355926        2.2676711853
 HYDROGEN    1.0     0.0000000000        1.1338355926       -2.2676711853
 HYDROGEN    1.0     0.0000000000       -1.1338355926       -2.2676711853
 HYDROGEN    1.0     0.0000000000        1.1338355926        2.2676711853

          INTERNUCLEAR DISTANCES (ANGS.)
          ------------------------------

                1 CARB       2 CARB       3 HYDR       4 HYDR       5 HYDR  

   1 CARB    0.0000000    1.4000000 *  1.9924859 *  0.7810250 *  0.7810250 *
   2 CARB    1.4000000 *  0.0000000    0.7810250 *  1.9924859 *  1.9924859 *
   3 HYDR    1.9924859 *  0.7810250 *  0.0000000    2.6832816 *  2.4000000 *
   4 HYDR    0.7810250 *  1.9924859 *  2.6832816 *  0.0000000    1.2000000 *
   5 HYDR    0.7810250 *  1.9924859 *  2.4000000 *  1.2000000 *  0.0000000  
   6 HYDR    1.9924859 *  0.7810250 *  1.2000000 *  2.4000000 *  2.6832816 *

                6 HYDR  

   1 CARB    1.9924859 *
   2 CARB    0.7810250 *
   3 HYDR    1.2000000 *
   4 HYDR    2.4000000 *
   5 HYDR    2.6832816 *
   6 HYDR    0.0000000  

  * ... LESS THAN  3.000


     ATOMIC BASIS SET
     ----------------
 THE CONTRACTED PRIMITIVE FUNCTIONS HAVE BEEN UNNORMALIZED
 THE CONTRACTED BASIS FUNCTIONS ARE NOW NORMALIZED TO UNITY

  SHELL TYPE  PRIMITIVE        EXPONENT          CONTRACTION COEFFICIENT(S)

 CARBON    

      5   S       1          3047.5248800    0.001834737132
      5   S       2           457.3695180    0.014037322813
      5   S       3           103.9486850    0.068842622264
      5   S       4            29.2101553    0.232184443216
      5   S       5             9.2866630    0.467941348435
      5   S       6             3.1639270    0.362311985337

      6   L       7             7.8682723   -0.119332419775    0.068999066591
      6   L       8             1.8812885   -0.160854151696    0.316423960957
      6   L       9             0.5442493    1.143456437840    0.744308290898

      7   L      10             0.1687145    1.000000000000    1.000000000000

      8   D      11             0.8000000    1.000000000000

 HYDROGEN  

     15   S      12            18.7311370    0.033494604338
     15   S      13             2.8253944    0.234726953484
     15   S      14             0.6401217    0.813757326146

     16   S      15             0.1612778    1.000000000000

 TOTAL NUMBER OF BASIS SET SHELLS             =   16
 NUMBER OF CARTESIAN GAUSSIAN BASIS FUNCTIONS =   38
 NOTE: THIS RUN WILL RESTRICT THE MO VARIATION SPACE TO SPHERICAL HARMONICS.
 THE NUMBER OF ORBITALS KEPT IN THE VARIATIONAL SPACE WILL BE PRINTED LATER.
 NUMBER OF ELECTRONS                          =   16
 CHARGE OF MOLECULE                           =    0
 SPIN MULTIPLICITY                            =    1
 NUMBER OF OCCUPIED ORBITALS (ALPHA)          =    8
 NUMBER OF OCCUPIED ORBITALS (BETA )          =    8
 TOTAL NUMBER OF ATOMS                        =    6
 THE NUCLEAR REPULSION ENERGY IS       37.9598672370

     $NEO OPTIONS
     ------------
     NUNIQN=       0     BASNUC=DZSNB        NEOSCF=NONE    
     NEOCI =NONE         NUMULT=       2     NUCST =       1
     NAUXNB=       0     VNUCEX=       F     NUCOPT=       F
     NTAUXB=       0     NEOHSS=       F     HSSINI=READH   
     HSSUPD=POWELLUP     DIRNUC=       F     SYMNUC=       F
     QMTOLN= 0.0E+00     USRDEX=       F
     POSNEO=       F     POSPRP=       F
     NEONCI=       F     LOCORB=       0

     $CONTRL OPTIONS
     ---------------
 SCFTYP=RHF          RUNTYP=OPTIMIZE     EXETYP=RUN     
 MPLEVL=       0     CITYP =NONE         CCTYP =CCSD(T)      VBTYP =NONE    
 DFTTYP=NONE         TDDFT =NONE    
 MULT  =       1     ICHARG=       0     NZVAR =       0     COORD =UNIQUE  
 PP    =NONE         RELWFN=NONE         LOCAL =NONE         NUMGRD=       T
 ISPHER=       1     NOSYM =       0     MAXIT =      30     UNITS =ANGS    
 PLTORB=       F     MOLPLT=       F     AIMPAC=       F     FRIEND=        
 NPRINT=       7     IREST =       0     GEOM  =INPUT   
 NORMF =       0     NORMP =       0     ITOL  =      20     ICUT  =       9
 INTTYP=BEST         GRDTYP=BEST         QMTTOL= 1.0E-06

     $SYSTEM OPTIONS
     ---------------
  REPLICATED MEMORY=    80000000 WORDS (ON EVERY NODE).
 DISTRIBUTED MEMDDI=          20 MILLION WORDS IN AGGREGATE,
 MEMDDI DISTRIBUTED OVER   4 PROCESSORS IS     5000000 WORDS/PROCESSOR.
 TOTAL MEMORY REQUESTED ON EACH PROCESSOR=    85000000 WORDS.
 TIMLIM=        9000.00 MINUTES, OR       6.3 DAYS.
 PARALL= T  BALTYP=  DLB     KDIAG=    0  COREFL= F
 MXSEQ2=     300 MXSEQ3=     150

          ----------------
          PROPERTIES INPUT
          ----------------

     MOMENTS            FIELD           POTENTIAL          DENSITY
 IEMOM =       1   IEFLD =       0   IEPOT =       0   IEDEN =       0
 WHERE =COMASS     WHERE =NUCLEI     WHERE =NUCLEI     WHERE =NUCLEI  
 OUTPUT=BOTH       OUTPUT=BOTH       OUTPUT=BOTH       OUTPUT=BOTH    
 IEMINT=       0   IEFINT=       0                     IEDINT=       0
                                                       MORB  =       0
          EXTRAPOLATION IN EFFECT
          SOSCF IN EFFECT
 ORBITAL PRINTING OPTION: NPREO=     1    38     2     1

     -------------------------------
     INTEGRAL TRANSFORMATION OPTIONS
     -------------------------------
     NWORD  =            0
     CUTOFF = 1.0E-09     MPTRAN =       0
     DIRTRF =       T     AOINTS =DUP     

          ----------------------
          INTEGRAL INPUT OPTIONS
          ----------------------
 NOPK  =       1 NORDER=       0 SCHWRZ=       T

     ------------------------------------------
     THE POINT GROUP IS DNH, NAXIS= 2, ORDER= 8
     ------------------------------------------

 -- VARIATIONAL SPACE WILL BE RESTRICTED TO PURE SPHERICAL HARMONICS ONLY --
 AFTER EXCLUDING CONTAMINANT COMBINATIONS FROM THE CARTESIAN GAUSSIAN BASIS
 SET, THE NUMBER OF SPHERICAL HARMONICS KEPT IN THE VARIATION SPACE IS   36

     DIMENSIONS OF THE SYMMETRY SUBSPACES ARE
 AG  =    9     AU  =    1     B3U =    3     B3G =    5     B1G =    1
 B1U =    9     B2U =    5     B2G =    3

 ..... DONE SETTING UP THE RUN .....
 CPU     0: STEP CPU TIME=     0.01 TOTAL CPU TIME=        0.0 (    0.0 MIN)
 TOTAL WALL CLOCK TIME=        0.0 SECONDS, CPU UTILIZATION IS 100.01%


          -----------------------------
          STATIONARY POINT LOCATION RUN
          -----------------------------

 OBTAINING INITIAL HESSIAN, HESS=GUESS   
 CARTESIAN COORDINATE OPTIMIZATION USING BADGER'S RULE FORCE CONSTANT GUESS

          PARAMETERS CONTROLLING GEOMETRY SEARCH ARE
          METHOD =QA                  UPHESS =BFGS    
          NNEG   =         0          NFRZ   =         0
          NSTEP  =        50          IFOLOW =         1
          HESS   =GUESS               RESTAR =         F
          IHREP  =         0          HSSEND =         F
          NPRT   =         0          NPUN   =         0
          OPTTOL = 1.000E-04          RMIN   = 1.500E-03
          RMAX   = 1.000E-01          RLIM   = 7.000E-02
          DXMAX  = 3.000E-01          PURIFY =         F
          MOVIE  =         F          TRUPD  =         T
          TRMAX  = 5.000E-01          TRMIN  = 5.000E-02
          ITBMAT =         5          STPT   =         F
          STSTEP = 1.000E-02          PROJCT=          T

 BEGINNING GEOMETRY SEARCH POINT NSERCH=   0 ...

 COORDINATES OF SYMMETRY UNIQUE ATOMS (ANGS)
   ATOM   CHARGE       X              Y              Z
 ------------------------------------------------------------
 CARBON      6.0   0.0000000000   0.0000000000   0.7000000000
 HYDROGEN    1.0   0.0000000000   0.6000000000   1.2000000000
 COORDINATES OF ALL ATOMS ARE (ANGS)
   ATOM   CHARGE       X              Y              Z
 ------------------------------------------------------------
 CARBON      6.0   0.0000000000   0.0000000000  -0.7000000000
 CARBON      6.0   0.0000000000   0.0000000000   0.7000000000
 HYDROGEN    1.0   0.0000000000  -0.6000000000   1.2000000000
 HYDROGEN    1.0   0.0000000000   0.6000000000  -1.2000000000
 HYDROGEN    1.0   0.0000000000  -0.6000000000  -1.2000000000
 HYDROGEN    1.0   0.0000000000   0.6000000000   1.2000000000

          ********************
          1 ELECTRON INTEGRALS
          ********************
 ...... END OF ONE-ELECTRON INTEGRALS ......
 CPU     0: STEP CPU TIME=     0.00 TOTAL CPU TIME=        0.0 (    0.0 MIN)
 TOTAL WALL CLOCK TIME=        0.0 SECONDS, CPU UTILIZATION IS 100.01%

          -------------
          GUESS OPTIONS
          -------------
          GUESS =HUCKEL            NORB  =       0          NORDER=       0
          MIX   =       F          PRTMO =       F          PUNMO =       F
          TOLZ  = 1.0E-08          TOLE  = 1.0E-05
          SYMDEN=       F          PURIFY=       F

 INITIAL GUESS ORBITALS GENERATED BY HUCKEL   ROUTINE.
 HUCKEL GUESS REQUIRES     15624 WORDS.

 STATISTICS FOR GENERATION OF SYMMETRY ORBITAL -Q- MATRIX
 NUMBER OF CARTESIAN ATOMIC ORBITALS=         38
 NUMBER OF SPHERICAL CONTAMINANTS DROPPED=     2
 NUMBER OF LINEARLY DEPENDENT MOS DROPPED=     0
 TOTAL NUMBER OF MOS IN VARIATION SPACE=      36

 SYMMETRIES FOR INITIAL GUESS ORBITALS FOLLOW.   BOTH SET(S).
     8 ORBITALS ARE OCCUPIED (    2 CORE ORBITALS).
     3=AG       4=B1U      5=B2U      6=AG       7=B3U      8=B3G      9=B2G 
    10=B1U     11=B2U     12=B3G     13=B1U     14=AG      15=AG      16=AG  
    17=AG      18=AG  
 ...... END OF INITIAL ORBITAL SELECTION ......
 CPU     0: STEP CPU TIME=     0.00 TOTAL CPU TIME=        0.0 (    0.0 MIN)
 TOTAL WALL CLOCK TIME=        0.0 SECONDS, CPU UTILIZATION IS 100.01%

                    ----------------------
                    AO INTEGRAL TECHNOLOGY
                    ----------------------
     S,P,L SHELL ROTATED AXIS INTEGRALS, REPROGRAMMED BY
        KAZUYA ISHIMURA (IMS) AND JOSE SIERRA (SYNSTAR).
     S,P,D,L SHELL ROTATED AXIS INTEGRALS PROGRAMMED BY
        KAZUYA ISHIMURA (INSTITUTE FOR MOLECULAR SCIENCE).
     S,P,D,F,G SHELL TO TOTAL QUARTET ANGULAR MOMENTUM SUM 5,
        ERIC PROGRAM BY GRAHAM FLETCHER (ELORET AND NASA ADVANCED
        SUPERCOMPUTING DIVISION, AMES RESEARCH CENTER).
     S,P,D,F,G,L SHELL GENERAL RYS QUADRATURE PROGRAMMED BY
        MICHEL DUPUIS (PACIFIC NORTHWEST NATIONAL LABORATORY).

          --------------------
          2 ELECTRON INTEGRALS
          --------------------

 DIRECT SCF METHOD SKIPS INTEGRAL STORAGE ON DISK.
 DIRECT TRANSFORMATION SKIPS AO INTEGRAL STORAGE ON DISK.
  ...... END OF TWO-ELECTRON INTEGRALS .....
 CPU     0: STEP CPU TIME=     0.03 TOTAL CPU TIME=        0.1 (    0.0 MIN)
 TOTAL WALL CLOCK TIME=        0.1 SECONDS, CPU UTILIZATION IS 100.00%

          --------------------------
                 RHF SCF CALCULATION
          --------------------------

     NUCLEAR ENERGY =        37.9598672370
     MAXIT =   30     NPUNCH=    2
     EXTRAP=T  DAMP=F  SHIFT=F  RSTRCT=F  DIIS=F  DEM=F  SOSCF=T
     DENSITY MATRIX CONV=  2.00E-06
     SOSCF WILL OPTIMIZE     224 ORBITAL ROTATIONS, SOGTOL=   0.250
     MEMORY REQUIRED FOR RHF ITERS=     57204 WORDS.

 DIRECT SCF CALCULATION, SCHWRZ=T   FDIFF=T,  DIRTHR=  0.00E+00 NITDIR=10
 SCHWARZ INEQUALITY OVERHEAD:       741 INTEGRALS, T=        0.00

                                                                                   NONZERO     BLOCKS
 ITER EX DEM     TOTAL ENERGY        E CHANGE  DENSITY CHANGE     ORB. GRAD      INTEGRALS    SKIPPED
   1  0  0      -77.2742234122   -77.2742234122   0.186849777   0.000000000          39838          1
          ---------------START SECOND ORDER SCF---------------
   2  1  0      -77.5196145534    -0.2453911412   0.070075057   0.066524200          39838          1
   3  2  0      -77.5322904542    -0.0126759008   0.017760254   0.011859410          39835          4
   4  3  0      -77.5335331557    -0.0012427015   0.001132259   0.001785867          39833          6
   5  4  0      -77.5335445925    -0.0000114368   0.000611250   0.000275185          39827         12
   6  5  0      -77.5335452202    -0.0000006276   0.000107111   0.000052517          39807         22
   7  6  0      -77.5335452313    -0.0000000111   0.000024543   0.000007292          39763         34
   8  7  0      -77.5335452317    -0.0000000004   0.000001968   0.000001302          39685         55
   9  8  0      -77.5335452317     0.0000000000   0.000000288   0.000000254          39505        119

 RHF HAS CONVERGED, NOW COMPUTING EXACT TOTAL FOCK MATRIX
 FOR USE DURING THE COUPLED CLUSTER CALCULATION THAT FOLLOWS.

          -----------------
          DENSITY CONVERGED
          -----------------
     TIME TO FORM FOCK OPERATORS=       0.0 SECONDS (       0.0 SEC/ITER)
     FOCK TIME ON FIRST ITERATION=       0.0, LAST ITERATION=       0.0
     TIME TO SOLVE SCF EQUATIONS=       0.0 SECONDS (       0.0 SEC/ITER)

 FINAL RHF ENERGY IS      -77.5335452317 AFTER   9 ITERATIONS

          ------------
          EIGENVECTORS
          ------------

                      1          2          3          4          5
                  -11.1805   -11.1793    -1.0826    -0.9723    -0.6932
                     AG         B1U        AG         B1U        B2U 
    1  C  1  S    0.704004   0.704208  -0.162524  -0.135515   0.000000
    2  C  1  S    0.019032   0.020013   0.297915   0.254421   0.000000
    3  C  1  X    0.000000   0.000000   0.000000   0.000000   0.000000
    4  C  1  Y    0.000000   0.000000   0.000000   0.000000   0.371581
    5  C  1  Z   -0.001696  -0.001043  -0.025128  -0.199922   0.000000
    6  C  1  S   -0.012063  -0.015832   0.168999   0.118228   0.000000
    7  C  1  X    0.000000   0.000000   0.000000   0.000000   0.000000
    8  C  1  Y    0.000000   0.000000   0.000000   0.000000   0.090990
    9  C  1  Z    0.002886   0.001427   0.012814  -0.023096   0.000000
   10  C  1 XX   -0.000660  -0.001212  -0.018500  -0.016240   0.000000
   11  C  1 YY    0.000495   0.000321   0.002312   0.011815   0.000000
   12  C  1 ZZ    0.000165   0.000890   0.016187   0.004426   0.000000
   13  C  1 XY    0.000000   0.000000   0.000000   0.000000   0.000000
   14  C  1 XZ    0.000000   0.000000   0.000000   0.000000   0.000000
   15  C  1 YZ    0.000000   0.000000   0.000000   0.000000  -0.023839
   16  C  2  S    0.704004  -0.704208  -0.162524   0.135515   0.000000
   17  C  2  S    0.019032  -0.020013   0.297915  -0.254421   0.000000
   18  C  2  X    0.000000   0.000000   0.000000   0.000000   0.000000
   19  C  2  Y    0.000000   0.000000   0.000000   0.000000   0.371581
   20  C  2  Z    0.001696  -0.001043   0.025128  -0.199922   0.000000
   21  C  2  S   -0.012063   0.015832   0.168999  -0.118228   0.000000
   22  C  2  X    0.000000   0.000000   0.000000   0.000000   0.000000
   23  C  2  Y    0.000000   0.000000   0.000000   0.000000   0.090990
   24  C  2  Z   -0.002886   0.001427  -0.012814  -0.023096   0.000000
   25  C  2 XX   -0.000660   0.001212  -0.018500   0.016240   0.000000
   26  C  2 YY    0.000495  -0.000321   0.002312  -0.011815   0.000000
   27  C  2 ZZ    0.000165  -0.000890   0.016187  -0.004426   0.000000
   28  C  2 XY    0.000000   0.000000   0.000000   0.000000   0.000000
   29  C  2 XZ    0.000000   0.000000   0.000000   0.000000   0.000000
   30  C  2 YZ    0.000000   0.000000   0.000000   0.000000   0.023839
   31  H  3  S   -0.000479   0.000433   0.134489  -0.170907  -0.170286
   32  H  3  S    0.004197  -0.004397   0.029124  -0.056187  -0.108302
   33  H  4  S   -0.000479  -0.000433   0.134489   0.170907   0.170286
   34  H  4  S    0.004197   0.004397   0.029124   0.056187   0.108302
   35  H  5  S   -0.000479  -0.000433   0.134489   0.170907  -0.170286
   36  H  5  S    0.004197   0.004397   0.029124   0.056187  -0.108302
   37  H  6  S   -0.000479   0.000433   0.134489  -0.170907   0.170286
   38  H  6  S    0.004197  -0.004397   0.029124  -0.056187   0.108302

                      6          7          8          9         10
                   -0.6570    -0.5806    -0.3506     0.1588     0.3021
                     AG         B3G        B3U        B2G        AG  
    1  C  1  S   -0.034553   0.000000   0.000000   0.000000  -0.073569
    2  C  1  S    0.064331   0.000000   0.000000   0.000000   0.052485
    3  C  1  X    0.000000   0.000000   0.372018   0.356502   0.000000
    4  C  1  Y    0.000000   0.377966   0.000000   0.000000   0.000000
    5  C  1  Z    0.430727   0.000000   0.000000   0.000000  -0.091443
    6  C  1  S    0.126050   0.000000   0.000000   0.000000   2.898648
    7  C  1  X    0.000000   0.000000   0.317617   0.679652   0.000000
    8  C  1  Y    0.000000   0.083830   0.000000   0.000000   0.000000
    9  C  1  Z    0.121734   0.000000   0.000000   0.000000  -1.013609
   10  C  1 XX    0.005461   0.000000   0.000000   0.000000  -0.013878
   11  C  1 YY   -0.009524   0.000000   0.000000   0.000000  -0.001127
   12  C  1 ZZ    0.004063   0.000000   0.000000   0.000000   0.015005
   13  C  1 XY    0.000000   0.000000   0.000000   0.000000   0.000000
   14  C  1 XZ    0.000000   0.000000   0.013093  -0.037039   0.000000
   15  C  1 YZ    0.000000  -0.048571   0.000000   0.000000   0.000000
   16  C  2  S   -0.034553   0.000000   0.000000   0.000000  -0.073569
   17  C  2  S    0.064331   0.000000   0.000000   0.000000   0.052485
   18  C  2  X    0.000000   0.000000   0.372018  -0.356502   0.000000
   19  C  2  Y    0.000000  -0.377966   0.000000   0.000000   0.000000
   20  C  2  Z   -0.430727   0.000000   0.000000   0.000000   0.091443
   21  C  2  S    0.126050   0.000000   0.000000   0.000000   2.898648
   22  C  2  X    0.000000   0.000000   0.317617  -0.679652   0.000000
   23  C  2  Y    0.000000  -0.083830   0.000000   0.000000   0.000000
   24  C  2  Z   -0.121734   0.000000   0.000000   0.000000   1.013609
   25  C  2 XX    0.005461   0.000000   0.000000   0.000000  -0.013878
   26  C  2 YY   -0.009524   0.000000   0.000000   0.000000  -0.001127
   27  C  2 ZZ    0.004063   0.000000   0.000000   0.000000   0.015005
   28  C  2 XY    0.000000   0.000000   0.000000   0.000000   0.000000
   29  C  2 XZ    0.000000   0.000000  -0.013093  -0.037039   0.000000
   30  C  2 YZ    0.000000  -0.048571   0.000000   0.000000   0.000000
   31  H  3  S   -0.112481   0.195608   0.000000   0.000000   0.038811
   32  H  3  S   -0.064412   0.178500   0.000000   0.000000  -1.797206
   33  H  4  S   -0.112481   0.195608   0.000000   0.000000   0.038811
   34  H  4  S   -0.064412   0.178500   0.000000   0.000000  -1.797206
   35  H  5  S   -0.112481  -0.195608   0.000000   0.000000   0.038811
   36  H  5  S   -0.064412  -0.178500   0.000000   0.000000  -1.797206
   37  H  6  S   -0.112481  -0.195608   0.000000   0.000000   0.038811
   38  H  6  S   -0.064412  -0.178500   0.000000   0.000000  -1.797206

                     11         12         13         14         15
                    0.3367     0.3879     0.4230     0.5094     0.6356
                     B1U        B2U        B3G        B1U        B2U 
    1  C  1  S   -0.094031   0.000000   0.000000  -0.076384   0.000000
    2  C  1  S    0.041887   0.000000   0.000000   0.032966   0.000000
    3  C  1  X    0.000000   0.000000   0.000000   0.000000   0.000000
    4  C  1  Y    0.000000   0.216475  -0.212628   0.000000  -0.336386
    5  C  1  Z   -0.067975   0.000000   0.000000   0.231073   0.000000
    6  C  1  S    2.954956   0.000000   0.000000   1.458686   0.000000
    7  C  1  X    0.000000   0.000000   0.000000   0.000000   0.000000
    8  C  1  Y    0.000000   1.066417  -2.222132   0.000000   0.996930
    9  C  1  Z   -0.576138   0.000000   0.000000   3.363425   0.000000
   10  C  1 XX   -0.013310   0.000000   0.000000   0.012298   0.000000
   11  C  1 YY    0.010926   0.000000   0.000000   0.030317   0.000000
   12  C  1 ZZ    0.002384   0.000000   0.000000  -0.042615   0.000000
   13  C  1 XY    0.000000   0.000000   0.000000   0.000000   0.000000
   14  C  1 XZ    0.000000   0.000000   0.000000   0.000000   0.000000
   15  C  1 YZ    0.000000   0.022942   0.017164   0.000000   0.035319
   16  C  2  S    0.094031   0.000000   0.000000   0.076384   0.000000
   17  C  2  S   -0.041887   0.000000   0.000000  -0.032966   0.000000
   18  C  2  X    0.000000   0.000000   0.000000   0.000000   0.000000
   19  C  2  Y    0.000000   0.216475   0.212628   0.000000  -0.336386
   20  C  2  Z   -0.067975   0.000000   0.000000   0.231073   0.000000
   21  C  2  S   -2.954956   0.000000   0.000000  -1.458686   0.000000
   22  C  2  X    0.000000   0.000000   0.000000   0.000000   0.000000
   23  C  2  Y    0.000000   1.066417   2.222132   0.000000   0.996930
   24  C  2  Z   -0.576138   0.000000   0.000000   3.363425   0.000000
   25  C  2 XX    0.013310   0.000000   0.000000  -0.012298   0.000000
   26  C  2 YY   -0.010926   0.000000   0.000000  -0.030317   0.000000
   27  C  2 ZZ   -0.002384   0.000000   0.000000   0.042615   0.000000
   28  C  2 XY    0.000000   0.000000   0.000000   0.000000   0.000000
   29  C  2 XZ    0.000000   0.000000   0.000000   0.000000   0.000000
   30  C  2 YZ    0.000000  -0.022942   0.017164   0.000000  -0.035319
   31  H  3  S   -0.043617  -0.006077  -0.059094   0.000229   0.315558
   32  H  3  S    1.727064   1.892628   2.711440  -1.423761   0.468102
   33  H  4  S    0.043617   0.006077  -0.059094  -0.000229  -0.315558
   34  H  4  S   -1.727064  -1.892628   2.711440   1.423761  -0.468102
   35  H  5  S    0.043617  -0.006077   0.059094  -0.000229   0.315558
   36  H  5  S   -1.727064   1.892628  -2.711440   1.423761   0.468102
   37  H  6  S   -0.043617   0.006077   0.059094   0.000229  -0.315558
   38  H  6  S    1.727064  -1.892628  -2.711440  -1.423761  -0.468102

                     16         17         18         19         20
                    0.7036     0.7975     0.8861     0.8876     0.9003
                     AG         B3U        B1U        B2G        AG  
    1  C  1  S   -0.001480   0.000000   0.072264   0.000000  -0.026572
    2  C  1  S   -0.195271   0.000000   0.172976   0.000000  -1.047110
    3  C  1  X    0.000000   0.755823   0.000000  -0.806761   0.000000
    4  C  1  Y    0.000000   0.000000   0.000000   0.000000   0.000000
    5  C  1  Z   -0.524234   0.000000  -0.585747   0.000000  -0.079922
    6  C  1  S   -1.336112   0.000000  -1.746440   0.000000   3.649293
    7  C  1  X    0.000000  -0.641188   0.000000   1.064276   0.000000
    8  C  1  Y    0.000000   0.000000   0.000000   0.000000   0.000000
    9  C  1  Z    1.413123   0.000000   2.549145   0.000000  -1.095939
   10  C  1 XX    0.029586   0.000000  -0.079413   0.000000   0.099705
   11  C  1 YY    0.051887   0.000000  -0.026415   0.000000  -0.047053
   12  C  1 ZZ   -0.081472   0.000000   0.105828   0.000000  -0.052652
   13  C  1 XY    0.000000   0.000000   0.000000   0.000000   0.000000
   14  C  1 XZ    0.000000   0.048640   0.000000   0.035581   0.000000
   15  C  1 YZ    0.000000   0.000000   0.000000   0.000000   0.000000
   16  C  2  S   -0.001480   0.000000  -0.072264   0.000000  -0.026572
   17  C  2  S   -0.195271   0.000000  -0.172976   0.000000  -1.047110
   18  C  2  X    0.000000   0.755823   0.000000   0.806761   0.000000
   19  C  2  Y    0.000000   0.000000   0.000000   0.000000   0.000000
   20  C  2  Z    0.524234   0.000000  -0.585747   0.000000   0.079922
   21  C  2  S   -1.336112   0.000000   1.746440   0.000000   3.649293
   22  C  2  X    0.000000  -0.641188   0.000000  -1.064276   0.000000
   23  C  2  Y    0.000000   0.000000   0.000000   0.000000   0.000000
   24  C  2  Z   -1.413123   0.000000   2.549145   0.000000   1.095939
   25  C  2 XX    0.029586   0.000000   0.079413   0.000000   0.099705
   26  C  2 YY    0.051887   0.000000   0.026415   0.000000  -0.047053
   27  C  2 ZZ   -0.081472   0.000000  -0.105828   0.000000  -0.052652
   28  C  2 XY    0.000000   0.000000   0.000000   0.000000   0.000000
   29  C  2 XZ    0.000000  -0.048640   0.000000   0.035581   0.000000
   30  C  2 YZ    0.000000   0.000000   0.000000   0.000000   0.000000
   31  H  3  S    0.140458   0.000000  -0.293392   0.000000  -0.287653
   32  H  3  S    0.642712   0.000000  -1.619005   0.000000  -1.394728
   33  H  4  S    0.140458   0.000000   0.293392   0.000000  -0.287653
   34  H  4  S    0.642712   0.000000   1.619005   0.000000  -1.394728
   35  H  5  S    0.140458   0.000000   0.293392   0.000000  -0.287653
   36  H  5  S    0.642712   0.000000   1.619005   0.000000  -1.394728
   37  H  6  S    0.140458   0.000000  -0.293392   0.000000  -0.287653
   38  H  6  S    0.642712   0.000000  -1.619005   0.000000  -1.394728

                     21         22         23         24         25
                    1.1115     1.2857     1.3834     1.6566     1.6869
                     B3G        B1U        B2U        B3G        B3U 
    1  C  1  S    0.000000  -0.013469   0.000000   0.000000   0.000000
    2  C  1  S    0.000000  -1.429811   0.000000   0.000000   0.000000
    3  C  1  X    0.000000   0.000000   0.000000   0.000000  -0.137987
    4  C  1  Y   -0.580209   0.000000  -0.649073   0.760321   0.000000
    5  C  1  Z    0.000000  -0.379462   0.000000   0.000000   0.000000
    6  C  1  S    0.000000   5.154471   0.000000   0.000000   0.000000
    7  C  1  X    0.000000   0.000000   0.000000   0.000000   0.016290
    8  C  1  Y    4.454125   0.000000   1.163132  -0.324111   0.000000
    9  C  1  Z    0.000000   1.381465   0.000000   0.000000   0.000000
   10  C  1 XX    0.000000  -0.009860   0.000000   0.000000   0.000000
   11  C  1 YY    0.000000  -0.127342   0.000000   0.000000   0.000000
   12  C  1 ZZ    0.000000   0.137202   0.000000   0.000000   0.000000
   13  C  1 XY    0.000000   0.000000   0.000000   0.000000   0.000000
   14  C  1 XZ    0.000000   0.000000   0.000000   0.000000   0.629112
   15  C  1 YZ    0.008450   0.000000  -0.337792   0.196523   0.000000
   16  C  2  S    0.000000   0.013469   0.000000   0.000000   0.000000
   17  C  2  S    0.000000   1.429811   0.000000   0.000000   0.000000
   18  C  2  X    0.000000   0.000000   0.000000   0.000000  -0.137987
   19  C  2  Y    0.580209   0.000000  -0.649073  -0.760321   0.000000
   20  C  2  Z    0.000000  -0.379462   0.000000   0.000000   0.000000
   21  C  2  S    0.000000  -5.154471   0.000000   0.000000   0.000000
   22  C  2  X    0.000000   0.000000   0.000000   0.000000   0.016290
   23  C  2  Y   -4.454125   0.000000   1.163132   0.324111   0.000000
   24  C  2  Z    0.000000   1.381465   0.000000   0.000000   0.000000
   25  C  2 XX    0.000000   0.009860   0.000000   0.000000   0.000000
   26  C  2 YY    0.000000   0.127342   0.000000   0.000000   0.000000
   27  C  2 ZZ    0.000000  -0.137202   0.000000   0.000000   0.000000
   28  C  2 XY    0.000000   0.000000   0.000000   0.000000   0.000000
   29  C  2 XZ    0.000000   0.000000   0.000000   0.000000  -0.629112
   30  C  2 YZ    0.008450   0.000000   0.337792   0.196523   0.000000
   31  H  3  S   -0.260334   0.160950  -0.354210  -0.621724   0.000000
   32  H  3  S   -2.979941   0.637725   1.436612   0.662658   0.000000
   33  H  4  S   -0.260334  -0.160950   0.354210  -0.621724   0.000000
   34  H  4  S   -2.979941  -0.637725  -1.436612   0.662658   0.000000
   35  H  5  S    0.260334  -0.160950  -0.354210   0.621724   0.000000
   36  H  5  S    2.979941  -0.637725   1.436612  -0.662658   0.000000
   37  H  6  S    0.260334   0.160950   0.354210   0.621724   0.000000
   38  H  6  S    2.979941   0.637725  -1.436612  -0.662658   0.000000

                     26         27         28         29         30
                    1.7095     1.7468     1.8171     2.0735     2.2441
                     AG         B1U        B1G        AU         AG  
    1  C  1  S    0.000380   0.008787   0.000000   0.000000   0.001265
    2  C  1  S   -1.020527  -0.948281   0.000000   0.000000  -0.607812
    3  C  1  X    0.000000   0.000000   0.000000   0.000000   0.000000
    4  C  1  Y    0.000000   0.000000   0.000000   0.000000   0.000000
    5  C  1  Z    0.458984   0.571365   0.000000   0.000000  -0.229990
    6  C  1  S    2.314850   1.784289   0.000000   0.000000   0.182470
    7  C  1  X    0.000000   0.000000   0.000000   0.000000   0.000000
    8  C  1  Y    0.000000   0.000000   0.000000   0.000000   0.000000
    9  C  1  Z   -0.763222  -1.001760   0.000000   0.000000   0.414390
   10  C  1 XX   -0.308853  -0.254967   0.000000   0.000000  -0.262488
   11  C  1 YY    0.375250   0.326898   0.000000   0.000000  -0.405289
   12  C  1 ZZ   -0.066397  -0.071931   0.000000   0.000000   0.667777
   13  C  1 XY    0.000000   0.000000   0.686535   0.729646   0.000000
   14  C  1 XZ    0.000000   0.000000   0.000000   0.000000   0.000000
   15  C  1 YZ    0.000000   0.000000   0.000000   0.000000   0.000000
   16  C  2  S    0.000380  -0.008787   0.000000   0.000000   0.001265
   17  C  2  S   -1.020527   0.948281   0.000000   0.000000  -0.607812
   18  C  2  X    0.000000   0.000000   0.000000   0.000000   0.000000
   19  C  2  Y    0.000000   0.000000   0.000000   0.000000   0.000000
   20  C  2  Z   -0.458984   0.571365   0.000000   0.000000   0.229990
   21  C  2  S    2.314850  -1.784289   0.000000   0.000000   0.182470
   22  C  2  X    0.000000   0.000000   0.000000   0.000000   0.000000
   23  C  2  Y    0.000000   0.000000   0.000000   0.000000   0.000000
   24  C  2  Z    0.763222  -1.001760   0.000000   0.000000  -0.414390
   25  C  2 XX   -0.308853   0.254967   0.000000   0.000000  -0.262488
   26  C  2 YY    0.375250  -0.326898   0.000000   0.000000  -0.405289
   27  C  2 ZZ   -0.066397   0.071931   0.000000   0.000000   0.667777
   28  C  2 XY    0.000000   0.000000   0.686535  -0.729646   0.000000
   29  C  2 XZ    0.000000   0.000000   0.000000   0.000000   0.000000
   30  C  2 YZ    0.000000   0.000000   0.000000   0.000000   0.000000
   31  H  3  S    0.417947  -0.510326   0.000000   0.000000   0.129618
   32  H  3  S   -1.125432   1.176091   0.000000   0.000000   0.001899
   33  H  4  S    0.417947   0.510326   0.000000   0.000000   0.129618
   34  H  4  S   -1.125432  -1.176091   0.000000   0.000000   0.001899
   35  H  5  S    0.417947   0.510326   0.000000   0.000000   0.129618
   36  H  5  S   -1.125432  -1.176091   0.000000   0.000000   0.001899
   37  H  6  S    0.417947  -0.510326   0.000000   0.000000   0.129618
   38  H  6  S   -1.125432   1.176091   0.000000   0.000000   0.001899

                     31         32         33         34         35
                    2.6050     2.6739     2.8593     2.9185     3.0707
                     B2G        AG         B1U        B2U        B1U 
    1  C  1  S    0.000000  -0.016946  -0.033865   0.000000  -0.070471
    2  C  1  S    0.000000   0.558682  -0.145677   0.000000   0.444304
    3  C  1  X    0.100489   0.000000   0.000000   0.000000   0.000000
    4  C  1  Y    0.000000   0.000000   0.000000   0.812205   0.000000
    5  C  1  Z    0.000000  -0.525156   0.797557   0.000000   0.070047
    6  C  1  S    0.000000   0.948599   0.564889   0.000000   1.978490
    7  C  1  X    0.248917   0.000000   0.000000   0.000000   0.000000
    8  C  1  Y    0.000000   0.000000   0.000000  -0.011002   0.000000
    9  C  1  Z    0.000000  -0.494008   1.201654   0.000000   0.705132
   10  C  1 XX    0.000000  -0.696564   0.151354   0.000000  -0.930286
   11  C  1 YY    0.000000   0.558896  -0.840979   0.000000   0.092855
   12  C  1 ZZ    0.000000   0.137668   0.689625   0.000000   0.837431
   13  C  1 XY    0.000000   0.000000   0.000000   0.000000   0.000000
   14  C  1 XZ    0.866540   0.000000   0.000000   0.000000   0.000000
   15  C  1 YZ    0.000000   0.000000   0.000000  -0.872592   0.000000
   16  C  2  S    0.000000  -0.016946   0.033865   0.000000   0.070471
   17  C  2  S    0.000000   0.558682   0.145677   0.000000  -0.444304
   18  C  2  X   -0.100489   0.000000   0.000000   0.000000   0.000000
   19  C  2  Y    0.000000   0.000000   0.000000   0.812205   0.000000
   20  C  2  Z    0.000000   0.525156   0.797557   0.000000   0.070047
   21  C  2  S    0.000000   0.948599  -0.564889   0.000000  -1.978490
   22  C  2  X   -0.248917   0.000000   0.000000   0.000000   0.000000
   23  C  2  Y    0.000000   0.000000   0.000000  -0.011002   0.000000
   24  C  2  Z    0.000000   0.494008   1.201654   0.000000   0.705132
   25  C  2 XX    0.000000  -0.696564  -0.151354   0.000000   0.930286
   26  C  2 YY    0.000000   0.558896   0.840979   0.000000  -0.092855
   27  C  2 ZZ    0.000000   0.137668  -0.689625   0.000000  -0.837431
   28  C  2 XY    0.000000   0.000000   0.000000   0.000000   0.000000
   29  C  2 XZ    0.866540   0.000000   0.000000   0.000000   0.000000
   30  C  2 YZ    0.000000   0.000000   0.000000   0.872592   0.000000
   31  H  3  S    0.000000  -0.911950  -0.585018   0.985633   0.675830
   32  H  3  S    0.000000  -0.256480  -0.322457  -0.352411   0.008170
   33  H  4  S    0.000000  -0.911950   0.585018  -0.985633  -0.675830
   34  H  4  S    0.000000  -0.256480   0.322457   0.352411  -0.008170
   35  H  5  S    0.000000  -0.911950   0.585018   0.985633  -0.675830
   36  H  5  S    0.000000  -0.256480   0.322457  -0.352411  -0.008170
   37  H  6  S    0.000000  -0.911950  -0.585018  -0.985633   0.675830
   38  H  6  S    0.000000  -0.256480  -0.322457   0.352411   0.008170

                     36
                    3.8516
                     B3G 
    1  C  1  S    0.000000
    2  C  1  S    0.000000
    3  C  1  X    0.000000
    4  C  1  Y   -0.522027
    5  C  1  Z    0.000000
    6  C  1  S    0.000000
    7  C  1  X    0.000000
    8  C  1  Y   -0.714767
    9  C  1  Z    0.000000
   10  C  1 XX    0.000000
   11  C  1 YY    0.000000
   12  C  1 ZZ    0.000000
   13  C  1 XY    0.000000
   14  C  1 XZ    0.000000
   15  C  1 YZ    1.272327
   16  C  2  S    0.000000
   17  C  2  S    0.000000
   18  C  2  X    0.000000
   19  C  2  Y    0.522027
   20  C  2  Z    0.000000
   21  C  2  S    0.000000
   22  C  2  X    0.000000
   23  C  2  Y    0.714767
   24  C  2  Z    0.000000
   25  C  2 XX    0.000000
   26  C  2 YY    0.000000
   27  C  2 ZZ    0.000000
   28  C  2 XY    0.000000
   29  C  2 XZ    0.000000
   30  C  2 YZ    1.272327
   31  H  3  S    1.055819
   32  H  3  S    0.132588
   33  H  4  S    1.055819
   34  H  4  S    0.132588
   35  H  5  S   -1.055819
   36  H  5  S   -0.132588
   37  H  6  S   -1.055819
   38  H  6  S   -0.132588
 ...... END OF RHF CALCULATION ......
 CPU     0: STEP CPU TIME=     0.06 TOTAL CPU TIME=        0.1 (    0.0 MIN)
 TOTAL WALL CLOCK TIME=        0.1 SECONDS, CPU UTILIZATION IS 100.00%

     ----------------------------------------------------------------
     PROPERTY VALUES FOR THE RHF   SELF-CONSISTENT FIELD WAVEFUNCTION
     ----------------------------------------------------------------

          ---------------------------------------
          MULLIKEN AND LOWDIN POPULATION ANALYSES
          ---------------------------------------

               ----- POPULATIONS IN EACH AO -----
                             MULLIKEN      LOWDIN
              1  C  1  S      1.99820     1.98449
              2  C  1  S      0.71357     0.36799
              3  C  1  X      0.49377     0.46370
              4  C  1  Y      0.94715     0.84559
              5  C  1  Z      0.83196     0.72682
              6  C  1  S      0.39990     0.25973
              7  C  1  X      0.50296     0.52979
              8  C  1  Y      0.19074     0.37874
              9  C  1  Z      0.17076     0.32185
             10  C  1 XX      0.00454     0.09086
             11  C  1 YY      0.00568     0.16373
             12  C  1 ZZ      0.00000     0.19585
             13  C  1 XY      0.00327     0.00000
             14  C  1 XZ      0.03077     0.00652
             15  C  1 YZ      0.00000     0.05012
             16  C  2  S      1.99820     1.98449
             17  C  2  S      0.71357     0.36799
             18  C  2  X      0.49377     0.46370
             19  C  2  Y      0.94715     0.84559
             20  C  2  Z      0.83196     0.72682
             21  C  2  S      0.39990     0.25973
             22  C  2  X      0.50296     0.52979
             23  C  2  Y      0.19074     0.37874
             24  C  2  Z      0.17076     0.32185
             25  C  2 XX      0.00454     0.09086
             26  C  2 YY      0.00568     0.16373
             27  C  2 ZZ      0.00000     0.19585
             28  C  2 XY      0.00327     0.00000
             29  C  2 XZ      0.03077     0.00652
             30  C  2 YZ      0.00000     0.05012
             31  H  3  S      0.63781     0.56639
             32  H  3  S      0.21556     0.24072
             33  H  4  S      0.63781     0.56639
             34  H  4  S      0.21556     0.24072
             35  H  5  S      0.63781     0.56639
             36  H  5  S      0.21556     0.24072
             37  H  6  S      0.63781     0.56639
             38  H  6  S      0.21556     0.24072

          ----- MULLIKEN ATOMIC OVERLAP POPULATIONS -----
          (OFF-DIAGONAL ELEMENTS NEED TO BE MULTIPLIED BY 2)

             1           2           3           4           5

    1    4.8050072
    2    0.6977412   4.8050072
    3   -0.0294068   0.4246666   0.5531520
    4    0.4246666  -0.0294068   0.0071707   0.5531520
    5    0.4246666  -0.0294068  -0.0096342  -0.0925823   0.5531520
    6   -0.0294068   0.4246666  -0.0925823  -0.0096342   0.0071707

             6

    6    0.5531520

          TOTAL MULLIKEN AND LOWDIN ATOMIC POPULATIONS
       ATOM         MULL.POP.    CHARGE          LOW.POP.     CHARGE
    1 CARBON        6.293268   -0.293268         6.385779   -0.385779
    2 CARBON        6.293268   -0.293268         6.385779   -0.385779
    3 HYDROGEN      0.853366    0.146634         0.807111    0.192889
    4 HYDROGEN      0.853366    0.146634         0.807111    0.192889
    5 HYDROGEN      0.853366    0.146634         0.807111    0.192889
    6 HYDROGEN      0.853366    0.146634         0.807111    0.192889

          MULLIKEN SPHERICAL HARMONIC POPULATIONS
       ATOM           S       P       D      F      G      H      I    TOTAL
    1 CARBON        3.11    3.14    0.04   0.00   0.00   0.00   0.00    6.29
    2 CARBON        3.11    3.14    0.04   0.00   0.00   0.00   0.00    6.29
    3 HYDROGEN      0.85    0.00    0.00   0.00   0.00   0.00   0.00    0.85
    4 HYDROGEN      0.85    0.00    0.00   0.00   0.00   0.00   0.00    0.85
    5 HYDROGEN      0.85    0.00    0.00   0.00   0.00   0.00   0.00    0.85
    6 HYDROGEN      0.85    0.00    0.00   0.00   0.00   0.00   0.00    0.85

          -------------------------------
          BOND ORDER AND VALENCE ANALYSIS     BOND ORDER THRESHOLD=0.050
          -------------------------------

                   BOND                       BOND                       BOND
  ATOM PAIR DIST  ORDER      ATOM PAIR DIST  ORDER      ATOM PAIR DIST  ORDER
    1   2  1.400  2.059        1   4  0.781  0.967        1   5  0.781  0.967
    2   3  0.781  0.967        2   6  0.781  0.967

                       TOTAL       BONDED        FREE
      ATOM            VALENCE     VALENCE     VALENCE
    1 CARBON            3.964       3.964       0.000
    2 CARBON            3.964       3.964       0.000
    3 HYDROGEN          0.912       0.912       0.000
    4 HYDROGEN          0.912       0.912       0.000
    5 HYDROGEN          0.912       0.912       0.000
    6 HYDROGEN          0.912       0.912       0.000

          ---------------------
          ELECTROSTATIC MOMENTS
          ---------------------

 POINT   1           X           Y           Z (BOHR)    CHARGE
                 0.000000    0.000000    0.000000        0.00 (A.U.)
         DX          DY          DZ         /D/  (DEBYE)
     0.000000    0.000000    0.000000    0.000000
 ...... END OF PROPERTY EVALUATION ......
 CPU     0: STEP CPU TIME=     0.00 TOTAL CPU TIME=        0.1 (    0.0 MIN)
 TOTAL WALL CLOCK TIME=        0.1 SECONDS, CPU UTILIZATION IS 100.00%

     ---------------------------
     COUPLED CLUSTER CALCULATION
     ---------------------------
 CCTYP                        =CCSD(T) 
 TOTAL NUMBER OF MOS          =    36
 NUMBER OF OCCUPIED MOS       =     8
 NUMBER OF FROZEN CORE MOS    =     2
 NUMBER OF FROZEN VIRTUAL MOS =     0
 MAXIMUM CC ITERATIONS        =    30
 MAXIMUM DIIS ITERATIONS      =     5
 CONVERGENCE CRITERION FOR CC =     7
 AMPLITUDE ACCURACY THRESHOLD = 0.0E+00

     --------------------------------------------
     PARTIAL TWO ELECTRON INTEGRAL TRANSFORMATION
     --------------------------------------------

 NUMBER OF CORE MOLECULAR ORBITALS     =    2
 NUMBER OF OCCUPIED MOLECULAR ORBITALS =    8
 TOTAL NUMBER OF MOLECULAR ORBITALS    =   36
 TOTAL NUMBER OF ATOMIC ORBITALS       =   38
 THRESHOLD FOR KEEPING TRANSFORMED 2E- INTEGRALS = 1.000E-09

 -------------------------------     ------------------------------
 DISTRIBUTED DATA TRANSFORMATION     PROGRAM WRITTEN BY G. FLETCHER
 -------------------------------     ------------------------------

 THE DISTRIBUTED MEMORY REQUIRED FOR THIS STEP IS MEMDDI=     1 MWORDS
 CREATING DISTRIBUTED STORAGE FOR [VIR VIR|VIR OCC] INTEGRALS
 DDI: Creating Array [0] - 741 x 168 = 124488 words.
 CREATING DISTRIBUTED STORAGE FOR [VIR OCC|VIR OCC] INTEGRALS
 DDI: Creating Array [1] - 1444 x 21 = 30324 words.
 CREATING DISTRIBUTED STORAGE FOR [VIR OCC|OCC OCC] INTEGRALS
 DDI: Creating Array [2] - 28 x 126 = 3528 words.
 CREATING DISTRIBUTED STORAGE FOR [OCC OCC|OCC OCC] INTEGRALS
 DDI: Creating Array [3] - 21 x 21 = 441 words.
 CREATING DISTRIBUTED STORAGE FOR [VIR VIR|OCC OCC] INTEGRALS
 DDI: Creating Array [4] - 741 x 21 = 15561 words.
 FOR    4 PROCESSORS, THE REPLICATED MEMORY NEEDED IS     62716 WORDS.
 SCHWARZ INEQUALITY OVERHEAD:       741 INTEGRALS, T=        0.00

      DIRECT 4-INDEX TRANSFORMATION 
      SCHWARZ INEQUALITY TEST SKIPPED          3 INTEGRAL BLOCKS
 ... END OF INTEGRAL TRANSFORMATION ...
 CPU     0: STEP CPU TIME=     0.24 TOTAL CPU TIME=        0.4 (    0.0 MIN)
 TOTAL WALL CLOCK TIME=        0.4 SECONDS, CPU UTILIZATION IS 100.00%

   -----------------------
   COUPLED-CLUSTER PROGRAM
   -----------------------

   -------------------------------------------------------
   P.PIECUCH, S.A.KUCHARSKI, M.WLOCH, K.KOWALSKI, M.MUSIAL
   -------------------------------------------------------

 *****************************************************************
 THE FOLLOWING PAPERS SHOULD BE CITED WHEN USING COUPLED-CLUSTER
 OPTIONS:

 CCTYP = LCCD, CCD, CCSD, CCSD(T)
 P. PIECUCH, S.A. KUCHARSKI, K. KOWALSKI, AND M. MUSIAL,
 COMP. PHYS. COMMUN. 149, 71-96 (2002).

 CCTYP = R-CC, CR-CC, CCSD(TQ), CR-CC(Q)
 P. PIECUCH, S.A. KUCHARSKI, K. KOWALSKI, AND M. MUSIAL,
 COMP. PHYS. COMMUN. 149, 71-96 (2002);
 K. KOWALSKI AND P. PIECUCH, J. CHEM. PHYS. 113, 18-35 (2000);
 K. KOWALSKI AND P. PIECUCH, J. CHEM. PHYS. 113, 5644-5652 (2000).

 CCTYP = EOM-CCSD, CR-EOM
 P. PIECUCH, S.A. KUCHARSKI, K. KOWALSKI, AND M. MUSIAL,
 COMP. PHYS. COMMUN. 149, 71-96 (2002);
 K. KOWALSKI AND P. PIECUCH, J. CHEM. PHYS. 120, 1715-1738 (2004);
 M. WLOCH, J.R. GOUR, K. KOWALSKI, AND P. PIECUCH,
 J. CHEM. PHYS. 122, 214107-1 - 214107-15 (2005).

 CCTYP = CR-CCL
 P. PIECUCH, S.A. KUCHARSKI, K. KOWALSKI, AND M. MUSIAL,
 COMP. PHYS. COMMUN. 149, 71-96 (2002);
 P. PIECUCH AND M. WLOCH, J. CHEM. PHYS. 123,
 224105-1 - 224105-10 (2005).

 CCTYP = CR-EOML
 P. PIECUCH, S.A. KUCHARSKI, K. KOWALSKI, AND M. MUSIAL,
 COMP. PHYS. COMMUN. 149, 71-96 (2002);
 P. PIECUCH, J. R. GOUR, AND M. WLOCH,
 INT. J. QUANTUM CHEM. 109, 3268-3304 (2009);
 K. KOWALSKI AND P. PIECUCH,
 J. CHEM. PHYS. 120, 1715-1738 (2004).

 IN ADDITION, THE USE OF CCPRP=.TRUE. IN $CCINP AND/OR THE USE
 OF CCPRPE=.TRUE. IN $EOMINP SHOULD REFERENCE

 M. WLOCH, J.R. GOUR, K. KOWALSKI, AND P. PIECUCH,
 J. CHEM. PHYS. 122, 214107-1 - 214107-15 (2005).
 *****************************************************************

 PARALLELIZATION OF CLOSED SHELL CCSD(T) IS
 J.L.BENTZ, R.M.OLSON, M.S.GORDON, M.W.SCHMIDT, R.A.KENDALL
   COMPUT.PHYS.COMMUN.  176, 589-600(2007)
 R.M.OLSON, J.L.BENTZ, R.A.KENDALL, M.W.SCHMIDT, M.S.GORDON
   J.COMPUT.THEORET.CHEM. 3, 1312-1328(2007)

 THE FOLLOWING CALCULATIONS WILL BE PERFORMED:
                                                     CCSD   
                                                     CCSD[T]
                                                     CCSD(T)

 THE FOLLOWING ENERGY WILL BE CONSIDERED THE HIGHEST LEVEL:    CCSD(T)
 THE AVAILABLE REPLICATED MEMORY IS    79999928 WORDS.
 CONVERGENCE THRESHOLD:   1.0E-07
 MAXIMUM NUMBER OF ITERATIONS:   30

 RUNNING THE DISTRIBUTED DATA, PARALLEL CCSD/CCSD(T) PROGRAM...

 PARALLEL CODE WRITTEN BY RYAN M. OLSON AND JONATHAN L. BENTZ,
 BASED ON SERIAL CODE OF P.PIECUCH, S.A.KUCHARSKI, K.KOWALSKI, M.MUSIAL

 1A.  REPLICATED MEMORY REQUIRED FOR PROCESS-BASED CCSD IS       190236 WORDS.
 1B.  REPLICATED MEMORY REQUIRED FOR    NODE-BASED CCSD IS       119666 WORDS.
 THIS RUN WILL USE       119666 WORDS OF REPLICATED MEMORY.
 2.       SHARED MEMORY REQUIRED FOR THE CCSD ITERS IS            92352 WORDS.
          SHARED MEMORY FOR THE (T) CORRECTION WILL BE           101984 WORDS.
 3.  DISTRIBUTED MEMORY FOR THIS JOB IS MEMDDI=       1 MWORDS.

 EXPLANATION (WHAT TO PUT IN $SYSTEM INPUT):
 1. THE PROCESS-BASED PARALLEL CCSD WILL BE CHOSEN IF MWORDS=       1,
    OTHERWISE, ENTER MWORDS=       1 TO RUN THE NODE-BASED PARALLEL CCSD.
    IT IS ALLOCATED BY EVERY COMPUTE PROCESS, SO THE SECOND, SMALLER VALUE
    IS UNDOUBTEDLY THE WISER CHOICE.
 2. THIS MEMORY CLASS PRESENTLY HAS NO INPUT KEYWORD.
    IT IS ALLOCATED ONCE PER NODE, OUT OF THE OPERATING SYSTEM'S SYSV MEMORY.
 3. THIS VALUE INCLUDES THE INTEGRAL TRANSFORMATION'S DISTRIBUTED MEMORY,
    SO MEMDDI=      1 SHOULD BE ENOUGH FOR THE ENTIRE JOB.
    IT IS ALLOCATED ONLY ONCE, FOR THE WHOLE RUN, SPREAD ACROSS ALL NODES.

 THIS JOB IS USING   4 NODES, WITH  1 PROCESSES/NODE,
 USING INPUT MEMORY VALUES MWORDS=      80 AND MEMDDI=      20
 MOST EFFICIENT VALUES ARE MWORDS=       1 AND MEMDDI=       1
 THE INPUT VALUES MEANS EACH SMP NODE WILL ALLOCATE      11 MBYTES OF MEMORY.

 DDI: Creating Array [5] - 168 x 168 = 28224 words.
 DDI: Creating Array [6] - 168 x 168 = 28224 words.
 DDI: Creating Array [7] - 168 x 168 = 28224 words.
 DDI: Creating Array [8] - 168 x 168 = 28224 words.
 DDI: Creating Array [9] - 168 x 168 = 28224 words.
 DDI: Creating Array [10] - 784 x 36 = 28224 words.
 DDI: Creating Array [11] - 784 x 36 = 28224 words.
 INITIALIZING INTEGRALS FOR CCSD
 RUNNING PROCESS-BASED CCSD ITERATIONS
 DDI: Creating Array [12] - 1444 x 21 = 30324 words.
 ITER:  1   CCSD    CORR. ENERGY:  -0.2582178927   CONV.: -2.4771E-02

 ITER  CPU TIME: TOTAL=     0.4  FORMULAE IN AO,MO BASIS=     0.3     0.1
 ITER WALL TIME: TOTAL=     0.4  FORMULAE IN AO,MO BASIS=     0.3     0.1
 IT IS BENEFICIAL TO ADD MORE PROCESSORS IF THE SCALABLE AO CONTRIBUTION'S TIME
 IS CONSIDERABLY LARGER THAN THE LESS SCALABLE MO CONTRIBUTION'S TIME.

 ITER:  2   CCSD    CORR. ENERGY:  -0.2626652249   CONV.: -1.4697E-02
 ITER:  3   CCSD    CORR. ENERGY:  -0.2645867955   CONV.: -4.3191E-03
 ITER:  4   CCSD    CORR. ENERGY:  -0.2648451060   CONV.:  2.7010E-02
 ITER:  5   CCSD    CORR. ENERGY:  -0.2648584008   CONV.:  2.6887E-02
 ITER:  6   CCSD    CORR. ENERGY:  -0.2653500561   CONV.:  2.2869E-02
 ITER:  7   CCSD    CORR. ENERGY:  -0.2671935963   CONV.:  7.1139E-03
 ITER:  8   CCSD    CORR. ENERGY:  -0.2680564669   CONV.: -1.6864E-04
 ITER:  9   CCSD    CORR. ENERGY:  -0.2680403952   CONV.: -5.6319E-06
 ITER: 10   CCSD    CORR. ENERGY:  -0.2680415971   CONV.: -1.8124E-06
 ITER: 11   CCSD    CORR. ENERGY:  -0.2680416229   CONV.:  6.2243E-07
 ITER: 12   CCSD    CORR. ENERGY:  -0.2680416101   CONV.:  4.3228E-07
 ITER: 13   CCSD    CORR. ENERGY:  -0.2680415957   CONV.:  1.6423E-07
 ITER: 14   CCSD    CORR. ENERGY:  -0.2680415864   CONV.:  5.2581E-08
 ITER: 15   CCSD    CORR. ENERGY:  -0.2680415829   CONV.:  5.2581E-08

     THE    CCSD     ITERATIONS HAVE CONVERGED

    MBPT(2) CORRELATION ENERGY:  -0.2422473375
    CCSD    CORRELATION ENERGY:  -0.2680415829

 T1 DIAGNOSTIC        =     0.01227883
 NORM OF THE T1 VECTOR=     0.04253511
 NORM OF THE T2 VECTOR=     0.31219554

 THE FIVE LARGEST T1 AMPLITUDES ARE:
 T1 AMPLITUDE IS  0.035819 FOR I=   8 -> A=  17
 T1 AMPLITUDE IS -0.011869 FOR I=   8 -> A=  25
 T1 AMPLITUDE IS  0.010620 FOR I=   5 -> A=  15
 T1 AMPLITUDE IS  0.006978 FOR I=   5 -> A=  23
 T1 AMPLITUDE IS  0.006075 FOR I=   7 -> A=  13

 THE FIVE LARGEST SPIN-UNIQUE T2 AMPLITUDES ARE:
 T2 AMPLITUDE IS -0.173671 FOR I,J=   8   8 -> A,B=   9   9
 T2 AMPLITUDE IS -0.043201 FOR I,J=   8   8 -> A,B=   9  19
 T2 AMPLITUDE IS  0.034137 FOR I,J=   6   8 -> A,B=  14   9
 T2 AMPLITUDE IS -0.025636 FOR I,J=   6   8 -> A,B=  18   9
 T2 AMPLITUDE IS -0.022727 FOR I,J=   8   8 -> A,B=  17  17
 PRINTED T2(I-ALPHA,J-BETA -> A-ALPHA,B-BETA) VALUES
 EQUAL   T2(J-ALPHA,I-BETA -> B-ALPHA,A-BETA) AMPLITUDES.

 ....... DONE WITH CC AMPLITUDE ITERATIONS .......
 CPU     0: STEP CPU TIME=     6.01 TOTAL CPU TIME=        6.4 (    0.1 MIN)
 TOTAL WALL CLOCK TIME=        6.4 SECONDS, CPU UTILIZATION IS 100.00%

 RUNNING THE DISTRIBUTED DATA, PARALLEL TRIPLES CORRECTION...

   REPLICATED MEMORY REQUIRED FOR TRIPLES IS         1120 WORDS.
       SHARED MEMORY REQUIRED FOR TRIPLES IS       101984 WORDS.
  DISTRIBUTED MEMORY IS ALREADY ALLOCATED ABOVE.


                      SUMMARY OF RESULTS

      REFERENCE ENERGY:      -77.5335452317
        MBPT(2) ENERGY:      -77.7757925693   CORR.E=  -0.2422473375
        CCSD    ENERGY:      -77.8015868146   CORR.E=  -0.2680415829
        CCSD[T] ENERGY:      -77.8102015467   CORR.E=  -0.2766563150
        CCSD(T) ENERGY:      -77.8098331547   CORR.E=  -0.2762879230

 THE FOLLOWING METHOD AND ENERGY WILL BE CONSIDERED THE HIGHEST LEVEL RESULT:
 COUPLED-CLUSTER ENERGY E(   CCSD(T)) =      -77.8098331547

 ..... DONE WITH CC NON-ITERATIVE TRIPLES CORRECTIONS .....
 CPU     0: STEP CPU TIME=     0.18 TOTAL CPU TIME=        6.5 (    0.1 MIN)
 TOTAL WALL CLOCK TIME=        6.5 SECONDS, CPU UTILIZATION IS 100.00%

 COMPUTING THE NUCLEAR GRADIENT BY NUMERIC DIFFERENTIATION
 PROJECTION FINDS   3 TOTALLY SYMMETRIC MODES OUT OF 3N=    18
 SO     6 SINGLE POINT ENERGIES MUST BE COMPUTED TO GET A GRADIENT.

             1           2           3           4           5

    1    0.0000000   0.0000000   0.0000000   0.0000000   0.0000000
    2    0.0000000   0.0000000  -1.1338356   1.1338356  -1.1338356
    3   -1.3228082   1.3228082   2.2726712  -2.2726712  -2.2726712

             6

    1    0.0000000
    2    1.1338356
    3    2.2726712
 WORKING ON IMODE=   1 IVIB=1...
 COORDINATES OF ALL ATOMS ARE (ANGS)
   ATOM   CHARGE       X              Y              Z
 ------------------------------------------------------------
 CARBON      6.0   0.0000000000   0.0000000000  -0.7000000000
 CARBON      6.0   0.0000000000   0.0000000000   0.7000000000
 HYDROGEN    1.0   0.0000000000  -0.6000000000   1.2026458862
 HYDROGEN    1.0   0.0000000000   0.6000000000  -1.2026458862
 HYDROGEN    1.0   0.0000000000  -0.6000000000  -1.2026458862
 HYDROGEN    1.0   0.0000000000   0.6000000000   1.2026458862
 ...... END OF ONE-ELECTRON INTEGRALS ......
 CPU     0: STEP CPU TIME=     0.05 TOTAL CPU TIME=        6.6 (    0.1 MIN)
 TOTAL WALL CLOCK TIME=        6.6 SECONDS, CPU UTILIZATION IS 100.00%
  ...... END OF TWO-ELECTRON INTEGRALS .....
 CPU     0: STEP CPU TIME=     0.00 TOTAL CPU TIME=        6.6 (    0.1 MIN)
 TOTAL WALL CLOCK TIME=        6.6 SECONDS, CPU UTILIZATION IS 100.00%

          --------------------------
                 RHF SCF CALCULATION
          --------------------------
     DENSITY MATRIX CONV=  2.00E-06

 DIRECT SCF CALCULATION, SCHWRZ=T   FDIFF=T,  DIRTHR=  0.00E+00 NITDIR=10

                                                                                   NONZERO     BLOCKS
 ITER EX DEM     TOTAL ENERGY        E CHANGE  DENSITY CHANGE     ORB. GRAD      INTEGRALS    SKIPPED
          ---------------START SECOND ORDER SCF---------------
   1  0  0      -77.5398400057   -77.5398400057   0.001510377   0.001019150          39838          1
   2  1  0      -77.5398451994    -0.0000051937   0.000239503   0.000242062          39821         15
   3  2  0      -77.5398455348    -0.0000003354   0.000053001   0.000037469          39792         23
   4  3  0      -77.5398455452    -0.0000000103   0.000012522   0.000006948          39756         38
   5  4  0      -77.5398455455    -0.0000000004   0.000002118   0.000000935          39684         54
   6  5  0      -77.5398455455     0.0000000000   0.000000295   0.000000141          39505        115

 RHF HAS CONVERGED, NOW COMPUTING EXACT TOTAL FOCK MATRIX
 FOR USE DURING THE COUPLED CLUSTER CALCULATION THAT FOLLOWS.

          -----------------
          DENSITY CONVERGED
          -----------------
     TIME TO FORM FOCK OPERATORS=       0.0 SECONDS (       0.0 SEC/ITER)
     FOCK TIME ON FIRST ITERATION=       0.0, LAST ITERATION=       0.0
     TIME TO SOLVE SCF EQUATIONS=       0.0 SECONDS (       0.0 SEC/ITER)

 FINAL RHF ENERGY IS      -77.5398455455 AFTER   6 ITERATIONS
 ...... END OF RHF CALCULATION ......
 CPU     0: STEP CPU TIME=     0.04 TOTAL CPU TIME=        6.6 (    0.1 MIN)
 TOTAL WALL CLOCK TIME=        6.6 SECONDS, CPU UTILIZATION IS 100.00%

     ---------------------------
     COUPLED CLUSTER CALCULATION
     ---------------------------
 CCTYP                        =CCSD(T) 
 TOTAL NUMBER OF MOS          =    36
 NUMBER OF OCCUPIED MOS       =     8
 NUMBER OF FROZEN CORE MOS    =     2
 NUMBER OF FROZEN VIRTUAL MOS =     0
 MAXIMUM CC ITERATIONS        =    30
 MAXIMUM DIIS ITERATIONS      =     5
 CONVERGENCE CRITERION FOR CC =     7
 AMPLITUDE ACCURACY THRESHOLD = 0.0E+00

     --------------------------------------------
     PARTIAL TWO ELECTRON INTEGRAL TRANSFORMATION
     --------------------------------------------

 NUMBER OF CORE MOLECULAR ORBITALS     =    2
 NUMBER OF OCCUPIED MOLECULAR ORBITALS =    8
 TOTAL NUMBER OF MOLECULAR ORBITALS    =   36
 TOTAL NUMBER OF ATOMIC ORBITALS       =   38
 THRESHOLD FOR KEEPING TRANSFORMED 2E- INTEGRALS = 1.000E-09

 -------------------------------     ------------------------------
 DISTRIBUTED DATA TRANSFORMATION     PROGRAM WRITTEN BY G. FLETCHER
 -------------------------------     ------------------------------

 THE DISTRIBUTED MEMORY REQUIRED FOR THIS STEP IS MEMDDI=     1 MWORDS
 CREATING DISTRIBUTED STORAGE FOR [VIR VIR|VIR OCC] INTEGRALS
 DDI: Creating Array [1] - 741 x 168 = 124488 words.
 CREATING DISTRIBUTED STORAGE FOR [VIR OCC|VIR OCC] INTEGRALS
 DDI: Creating Array [2] - 1444 x 21 = 30324 words.
 CREATING DISTRIBUTED STORAGE FOR [VIR OCC|OCC OCC] INTEGRALS
 DDI: Creating Array [3] - 28 x 126 = 3528 words.
 CREATING DISTRIBUTED STORAGE FOR [OCC OCC|OCC OCC] INTEGRALS
 DDI: Creating Array [4] - 21 x 21 = 441 words.
 CREATING DISTRIBUTED STORAGE FOR [VIR VIR|OCC OCC] INTEGRALS
 DDI: Creating Array [5] - 741 x 21 = 15561 words.
 FOR    4 PROCESSORS, THE REPLICATED MEMORY NEEDED IS     62716 WORDS.

      DIRECT 4-INDEX TRANSFORMATION 
      SCHWARZ INEQUALITY TEST SKIPPED          3 INTEGRAL BLOCKS
 ... END OF INTEGRAL TRANSFORMATION ...
 CPU     0: STEP CPU TIME=     0.32 TOTAL CPU TIME=        7.0 (    0.1 MIN)
 TOTAL WALL CLOCK TIME=        7.0 SECONDS, CPU UTILIZATION IS 100.00%

   -----------------------
   COUPLED-CLUSTER PROGRAM
   -----------------------

   -------------------------------------------------------
   P.PIECUCH, S.A.KUCHARSKI, M.WLOCH, K.KOWALSKI, M.MUSIAL
   -------------------------------------------------------

 THE FOLLOWING CALCULATIONS WILL BE PERFORMED:
                                                     CCSD   
                                                     CCSD[T]
                                                     CCSD(T)

 THE FOLLOWING ENERGY WILL BE CONSIDERED THE HIGHEST LEVEL:    CCSD(T)
 THE AVAILABLE REPLICATED MEMORY IS    79991703 WORDS.
 CONVERGENCE THRESHOLD:   1.0E-07
 MAXIMUM NUMBER OF ITERATIONS:   30

 RUNNING THE DISTRIBUTED DATA, PARALLEL CCSD/CCSD(T) PROGRAM...

 PARALLEL CODE WRITTEN BY RYAN M. OLSON AND JONATHAN L. BENTZ,
 BASED ON SERIAL CODE OF P.PIECUCH, S.A.KUCHARSKI, K.KOWALSKI, M.MUSIAL

 1A.  REPLICATED MEMORY REQUIRED FOR PROCESS-BASED CCSD IS       190236 WORDS.
 1B.  REPLICATED MEMORY REQUIRED FOR    NODE-BASED CCSD IS       119666 WORDS.
 THIS RUN WILL USE       119666 WORDS OF REPLICATED MEMORY.
 2.       SHARED MEMORY REQUIRED FOR THE CCSD ITERS IS            92352 WORDS.
          SHARED MEMORY FOR THE (T) CORRECTION WILL BE           101984 WORDS.
 3.  DISTRIBUTED MEMORY FOR THIS JOB IS MEMDDI=       1 MWORDS.

 EXPLANATION (WHAT TO PUT IN $SYSTEM INPUT):
 1. THE PROCESS-BASED PARALLEL CCSD WILL BE CHOSEN IF MWORDS=       1,
    OTHERWISE, ENTER MWORDS=       1 TO RUN THE NODE-BASED PARALLEL CCSD.
    IT IS ALLOCATED BY EVERY COMPUTE PROCESS, SO THE SECOND, SMALLER VALUE
    IS UNDOUBTEDLY THE WISER CHOICE.
 2. THIS MEMORY CLASS PRESENTLY HAS NO INPUT KEYWORD.
    IT IS ALLOCATED ONCE PER NODE, OUT OF THE OPERATING SYSTEM'S SYSV MEMORY.
 3. THIS VALUE INCLUDES THE INTEGRAL TRANSFORMATION'S DISTRIBUTED MEMORY,
    SO MEMDDI=      1 SHOULD BE ENOUGH FOR THE ENTIRE JOB.
    IT IS ALLOCATED ONLY ONCE, FOR THE WHOLE RUN, SPREAD ACROSS ALL NODES.

 THIS JOB IS USING   4 NODES, WITH  1 PROCESSES/NODE,
 USING INPUT MEMORY VALUES MWORDS=      80 AND MEMDDI=      20
 MOST EFFICIENT VALUES ARE MWORDS=       1 AND MEMDDI=       1
 THE INPUT VALUES MEANS EACH SMP NODE WILL ALLOCATE      11 MBYTES OF MEMORY.

 DDI: Creating Array [6] - 168 x 168 = 28224 words.
 DDI: Creating Array [7] - 168 x 168 = 28224 words.
 DDI: Creating Array [8] - 168 x 168 = 28224 words.
 DDI: Creating Array [9] - 168 x 168 = 28224 words.
 DDI: Creating Array [10] - 168 x 168 = 28224 words.
 DDI: Creating Array [11] - 784 x 36 = 28224 words.
 DDI: Creating Array [12] - 784 x 36 = 28224 words.
 INITIALIZING INTEGRALS FOR CCSD
 RUNNING PROCESS-BASED CCSD ITERATIONS
 DDI: Creating Array [13] - 1444 x 21 = 30324 words.
 ITER:  1   CCSD    CORR. ENERGY:  -0.2583266754   CONV.: -2.4769E-02

 ITER  CPU TIME: TOTAL=     0.4  FORMULAE IN AO,MO BASIS=     0.3     0.1
 ITER WALL TIME: TOTAL=     0.4  FORMULAE IN AO,MO BASIS=     0.3     0.1
 IT IS BENEFICIAL TO ADD MORE PROCESSORS IF THE SCALABLE AO CONTRIBUTION'S TIME
 IS CONSIDERABLY LARGER THAN THE LESS SCALABLE MO CONTRIBUTION'S TIME.

 ITER:  2   CCSD    CORR. ENERGY:  -0.2627826997   CONV.: -1.4700E-02
 ITER:  3   CCSD    CORR. ENERGY:  -0.2647090946   CONV.: -4.3211E-03
 ITER:  4   CCSD    CORR. ENERGY:  -0.2649675317   CONV.: -2.7014E-02
 ITER:  5   CCSD    CORR. ENERGY:  -0.2649808711   CONV.: -2.6890E-02
 ITER:  6   CCSD    CORR. ENERGY:  -0.2654735126   CONV.: -2.2862E-02
 ITER:  7   CCSD    CORR. ENERGY:  -0.2673162889   CONV.: -7.1041E-03
 ITER:  8   CCSD    CORR. ENERGY:  -0.2681770347   CONV.:  1.6484E-04
 ITER:  9   CCSD    CORR. ENERGY:  -0.2681614261   CONV.:  5.6473E-06
 ITER: 10   CCSD    CORR. ENERGY:  -0.2681626317   CONV.:  1.8180E-06
 ITER: 11   CCSD    CORR. ENERGY:  -0.2681626580   CONV.:  6.2156E-07
 ITER: 12   CCSD    CORR. ENERGY:  -0.2681626451   CONV.:  4.3163E-07
 ITER: 13   CCSD    CORR. ENERGY:  -0.2681626305   CONV.:  1.6403E-07
 ITER: 14   CCSD    CORR. ENERGY:  -0.2681626212   CONV.:  5.2454E-08
 ITER: 15   CCSD    CORR. ENERGY:  -0.2681626178   CONV.:  5.2454E-08

     THE    CCSD     ITERATIONS HAVE CONVERGED

    MBPT(2) CORRELATION ENERGY:  -0.2423454325
    CCSD    CORRELATION ENERGY:  -0.2681626178

 T1 DIAGNOSTIC        =     0.01227536
 NORM OF THE T1 VECTOR=     0.04252310
 NORM OF THE T2 VECTOR=     0.31237029

 THE FIVE LARGEST T1 AMPLITUDES ARE:
 T1 AMPLITUDE IS -0.035814 FOR I=   8 -> A=  17
 T1 AMPLITUDE IS  0.011879 FOR I=   8 -> A=  25
 T1 AMPLITUDE IS  0.010576 FOR I=   5 -> A=  15
 T1 AMPLITUDE IS  0.007000 FOR I=   5 -> A=  23
 T1 AMPLITUDE IS  0.006064 FOR I=   7 -> A=  13

 THE FIVE LARGEST SPIN-UNIQUE T2 AMPLITUDES ARE:
 T2 AMPLITUDE IS -0.173662 FOR I,J=   8   8 -> A,B=   9   9
 T2 AMPLITUDE IS  0.043206 FOR I,J=   8   8 -> A,B=   9  19
 T2 AMPLITUDE IS -0.034165 FOR I,J=   8   6 -> A,B=   9  14
 T2 AMPLITUDE IS -0.025558 FOR I,J=   6   8 -> A,B=  18   9
 T2 AMPLITUDE IS -0.022724 FOR I,J=   8   8 -> A,B=  17  17
 PRINTED T2(I-ALPHA,J-BETA -> A-ALPHA,B-BETA) VALUES
 EQUAL   T2(J-ALPHA,I-BETA -> B-ALPHA,A-BETA) AMPLITUDES.

 ....... DONE WITH CC AMPLITUDE ITERATIONS .......
 CPU     0: STEP CPU TIME=     6.13 TOTAL CPU TIME=       13.1 (    0.2 MIN)
 TOTAL WALL CLOCK TIME=       13.1 SECONDS, CPU UTILIZATION IS 100.00%

 RUNNING THE DISTRIBUTED DATA, PARALLEL TRIPLES CORRECTION...

   REPLICATED MEMORY REQUIRED FOR TRIPLES IS         1120 WORDS.
       SHARED MEMORY REQUIRED FOR TRIPLES IS       101984 WORDS.
  DISTRIBUTED MEMORY IS ALREADY ALLOCATED ABOVE.


                      SUMMARY OF RESULTS

      REFERENCE ENERGY:      -77.5398455455
        MBPT(2) ENERGY:      -77.7821909781   CORR.E=  -0.2423454325
        CCSD    ENERGY:      -77.8080081633   CORR.E=  -0.2681626178
        CCSD[T] ENERGY:      -77.8166307931   CORR.E=  -0.2767852476
        CCSD(T) ENERGY:      -77.8162616682   CORR.E=  -0.2764161227

 THE FOLLOWING METHOD AND ENERGY WILL BE CONSIDERED THE HIGHEST LEVEL RESULT:
 COUPLED-CLUSTER ENERGY E(   CCSD(T)) =      -77.8162616682

 ..... DONE WITH CC NON-ITERATIVE TRIPLES CORRECTIONS .....
 CPU     0: STEP CPU TIME=     0.09 TOTAL CPU TIME=       13.2 (    0.2 MIN)
 TOTAL WALL CLOCK TIME=       13.2 SECONDS, CPU UTILIZATION IS 100.00%
 IMODE=    1 IVIB= 1 E=       -77.8162616682

             1           2           3           4           5

    1    0.0000000   0.0000000   0.0000000   0.0000000   0.0000000
    2    0.0000000   0.0000000  -1.1338356   1.1338356  -1.1338356
    3   -1.3228082   1.3228082   2.2626712  -2.2626712  -2.2626712

             6

    1    0.0000000
    2    1.1338356
    3    2.2626712
 WORKING ON IMODE=   1 IVIB=2...
 COORDINATES OF ALL ATOMS ARE (ANGS)
   ATOM   CHARGE       X              Y              Z
 ------------------------------------------------------------
 CARBON      6.0   0.0000000000   0.0000000000  -0.7000000000
 CARBON      6.0   0.0000000000   0.0000000000   0.7000000000
 HYDROGEN    1.0   0.0000000000  -0.6000000000   1.1973541138
 HYDROGEN    1.0   0.0000000000   0.6000000000  -1.1973541138
 HYDROGEN    1.0   0.0000000000  -0.6000000000  -1.1973541138
 HYDROGEN    1.0   0.0000000000   0.6000000000   1.1973541138
 ...... END OF ONE-ELECTRON INTEGRALS ......
 CPU     0: STEP CPU TIME=     0.05 TOTAL CPU TIME=       13.2 (    0.2 MIN)
 TOTAL WALL CLOCK TIME=       13.2 SECONDS, CPU UTILIZATION IS 100.00%
  ...... END OF TWO-ELECTRON INTEGRALS .....
 CPU     0: STEP CPU TIME=     0.00 TOTAL CPU TIME=       13.2 (    0.2 MIN)
 TOTAL WALL CLOCK TIME=       13.2 SECONDS, CPU UTILIZATION IS 100.00%

          --------------------------
                 RHF SCF CALCULATION
          --------------------------
     DENSITY MATRIX CONV=  2.00E-06

 DIRECT SCF CALCULATION, SCHWRZ=T   FDIFF=T,  DIRTHR=  0.00E+00 NITDIR=10

                                                                                   NONZERO     BLOCKS
 ITER EX DEM     TOTAL ENERGY        E CHANGE  DENSITY CHANGE     ORB. GRAD      INTEGRALS    SKIPPED
          ---------------START SECOND ORDER SCF---------------
   1  0  0      -77.5271721475   -77.5271721475   0.001518594   0.001020863          39838          1
   2  1  0      -77.5271773520    -0.0000052045   0.000240269   0.000242362          39821         15
   3  2  0      -77.5271776862    -0.0000003342   0.000052742   0.000036934          39792         23
   4  3  0      -77.5271776963    -0.0000000101   0.000012408   0.000006951          39756         38
   5  4  0      -77.5271776967    -0.0000000004   0.000002027   0.000000895          39684         54
   6  5  0      -77.5271776967     0.0000000000   0.000000291   0.000000134          39503        117

 RHF HAS CONVERGED, NOW COMPUTING EXACT TOTAL FOCK MATRIX
 FOR USE DURING THE COUPLED CLUSTER CALCULATION THAT FOLLOWS.

          -----------------
          DENSITY CONVERGED
          -----------------
     TIME TO FORM FOCK OPERATORS=       0.0 SECONDS (       0.0 SEC/ITER)
     FOCK TIME ON FIRST ITERATION=       0.0, LAST ITERATION=       0.0
     TIME TO SOLVE SCF EQUATIONS=       0.0 SECONDS (       0.0 SEC/ITER)

 FINAL RHF ENERGY IS      -77.5271776967 AFTER   6 ITERATIONS
 ...... END OF RHF CALCULATION ......
 CPU     0: STEP CPU TIME=     0.04 TOTAL CPU TIME=       13.3 (    0.2 MIN)
 TOTAL WALL CLOCK TIME=       13.3 SECONDS, CPU UTILIZATION IS 100.00%

     ---------------------------
     COUPLED CLUSTER CALCULATION
     ---------------------------
 CCTYP                        =CCSD(T) 
 TOTAL NUMBER OF MOS          =    36
 NUMBER OF OCCUPIED MOS       =     8
 NUMBER OF FROZEN CORE MOS    =     2
 NUMBER OF FROZEN VIRTUAL MOS =     0
 MAXIMUM CC ITERATIONS        =    30
 MAXIMUM DIIS ITERATIONS      =     5
 CONVERGENCE CRITERION FOR CC =     7
 AMPLITUDE ACCURACY THRESHOLD = 0.0E+00

     --------------------------------------------
     PARTIAL TWO ELECTRON INTEGRAL TRANSFORMATION
     --------------------------------------------

 NUMBER OF CORE MOLECULAR ORBITALS     =    2
 NUMBER OF OCCUPIED MOLECULAR ORBITALS =    8
 TOTAL NUMBER OF MOLECULAR ORBITALS    =   36
 TOTAL NUMBER OF ATOMIC ORBITALS       =   38
 THRESHOLD FOR KEEPING TRANSFORMED 2E- INTEGRALS = 1.000E-09

 -------------------------------     ------------------------------
 DISTRIBUTED DATA TRANSFORMATION     PROGRAM WRITTEN BY G. FLETCHER
 -------------------------------     ------------------------------

 THE DISTRIBUTED MEMORY REQUIRED FOR THIS STEP IS MEMDDI=     1 MWORDS
 CREATING DISTRIBUTED STORAGE FOR [VIR VIR|VIR OCC] INTEGRALS
 DDI: Creating Array [1] - 741 x 168 = 124488 words.
 CREATING DISTRIBUTED STORAGE FOR [VIR OCC|VIR OCC] INTEGRALS
 DDI: Creating Array [2] - 1444 x 21 = 30324 words.
 CREATING DISTRIBUTED STORAGE FOR [VIR OCC|OCC OCC] INTEGRALS
 DDI: Creating Array [3] - 28 x 126 = 3528 words.
 CREATING DISTRIBUTED STORAGE FOR [OCC OCC|OCC OCC] INTEGRALS
 DDI: Creating Array [4] - 21 x 21 = 441 words.
 CREATING DISTRIBUTED STORAGE FOR [VIR VIR|OCC OCC] INTEGRALS
 DDI: Creating Array [5] - 741 x 21 = 15561 words.
 FOR    4 PROCESSORS, THE REPLICATED MEMORY NEEDED IS     62716 WORDS.

      DIRECT 4-INDEX TRANSFORMATION 
      SCHWARZ INEQUALITY TEST SKIPPED          1 INTEGRAL BLOCKS
 ... END OF INTEGRAL TRANSFORMATION ...
 CPU     0: STEP CPU TIME=     0.29 TOTAL CPU TIME=       13.5 (    0.2 MIN)
 TOTAL WALL CLOCK TIME=       13.5 SECONDS, CPU UTILIZATION IS 100.00%

   -----------------------
   COUPLED-CLUSTER PROGRAM
   -----------------------

   -------------------------------------------------------
   P.PIECUCH, S.A.KUCHARSKI, M.WLOCH, K.KOWALSKI, M.MUSIAL
   -------------------------------------------------------

 THE FOLLOWING CALCULATIONS WILL BE PERFORMED:
                                                     CCSD   
                                                     CCSD[T]
                                                     CCSD(T)

 THE FOLLOWING ENERGY WILL BE CONSIDERED THE HIGHEST LEVEL:    CCSD(T)
 THE AVAILABLE REPLICATED MEMORY IS    79991703 WORDS.
 CONVERGENCE THRESHOLD:   1.0E-07
 MAXIMUM NUMBER OF ITERATIONS:   30

 RUNNING THE DISTRIBUTED DATA, PARALLEL CCSD/CCSD(T) PROGRAM...

 PARALLEL CODE WRITTEN BY RYAN M. OLSON AND JONATHAN L. BENTZ,
 BASED ON SERIAL CODE OF P.PIECUCH, S.A.KUCHARSKI, K.KOWALSKI, M.MUSIAL

 1A.  REPLICATED MEMORY REQUIRED FOR PROCESS-BASED CCSD IS       190236 WORDS.
 1B.  REPLICATED MEMORY REQUIRED FOR    NODE-BASED CCSD IS       119666 WORDS.
 THIS RUN WILL USE       119666 WORDS OF REPLICATED MEMORY.
 2.       SHARED MEMORY REQUIRED FOR THE CCSD ITERS IS            92352 WORDS.
          SHARED MEMORY FOR THE (T) CORRECTION WILL BE           101984 WORDS.
 3.  DISTRIBUTED MEMORY FOR THIS JOB IS MEMDDI=       1 MWORDS.

 EXPLANATION (WHAT TO PUT IN $SYSTEM INPUT):
 1. THE PROCESS-BASED PARALLEL CCSD WILL BE CHOSEN IF MWORDS=       1,
    OTHERWISE, ENTER MWORDS=       1 TO RUN THE NODE-BASED PARALLEL CCSD.
    IT IS ALLOCATED BY EVERY COMPUTE PROCESS, SO THE SECOND, SMALLER VALUE
    IS UNDOUBTEDLY THE WISER CHOICE.
 2. THIS MEMORY CLASS PRESENTLY HAS NO INPUT KEYWORD.
    IT IS ALLOCATED ONCE PER NODE, OUT OF THE OPERATING SYSTEM'S SYSV MEMORY.
 3. THIS VALUE INCLUDES THE INTEGRAL TRANSFORMATION'S DISTRIBUTED MEMORY,
    SO MEMDDI=      1 SHOULD BE ENOUGH FOR THE ENTIRE JOB.
    IT IS ALLOCATED ONLY ONCE, FOR THE WHOLE RUN, SPREAD ACROSS ALL NODES.

 THIS JOB IS USING   4 NODES, WITH  1 PROCESSES/NODE,
 USING INPUT MEMORY VALUES MWORDS=      80 AND MEMDDI=      20
 MOST EFFICIENT VALUES ARE MWORDS=       1 AND MEMDDI=       1
 THE INPUT VALUES MEANS EACH SMP NODE WILL ALLOCATE      11 MBYTES OF MEMORY.

 DDI: Creating Array [6] - 168 x 168 = 28224 words.
 DDI: Creating Array [7] - 168 x 168 = 28224 words.
 DDI: Creating Array [8] - 168 x 168 = 28224 words.
 DDI: Creating Array [9] - 168 x 168 = 28224 words.
 DDI: Creating Array [10] - 168 x 168 = 28224 words.
 DDI: Creating Array [11] - 784 x 36 = 28224 words.
 DDI: Creating Array [12] - 784 x 36 = 28224 words.
 INITIALIZING INTEGRALS FOR CCSD
 RUNNING PROCESS-BASED CCSD ITERATIONS
 DDI: Creating Array [13] - 1444 x 21 = 30324 words.
 ITER:  1   CCSD    CORR. ENERGY:  -0.2581100992   CONV.: -2.4773E-02

 ITER  CPU TIME: TOTAL=     0.4  FORMULAE IN AO,MO BASIS=     0.3     0.1
 ITER WALL TIME: TOTAL=     0.4  FORMULAE IN AO,MO BASIS=     0.3     0.1
 IT IS BENEFICIAL TO ADD MORE PROCESSORS IF THE SCALABLE AO CONTRIBUTION'S TIME
 IS CONSIDERABLY LARGER THAN THE LESS SCALABLE MO CONTRIBUTION'S TIME.

 ITER:  2   CCSD    CORR. ENERGY:  -0.2625488171   CONV.: -1.4694E-02
 ITER:  3   CCSD    CORR. ENERGY:  -0.2644656028   CONV.: -4.3171E-03
 ITER:  4   CCSD    CORR. ENERGY:  -0.2647237945   CONV.: -2.7006E-02
 ITER:  5   CCSD    CORR. ENERGY:  -0.2647370454   CONV.: -2.6884E-02
 ITER:  6   CCSD    CORR. ENERGY:  -0.2652277309   CONV.: -2.2876E-02
 ITER:  7   CCSD    CORR. ENERGY:  -0.2670720300   CONV.: -7.1237E-03
 ITER:  8   CCSD    CORR. ENERGY:  -0.2679370182   CONV.:  1.7240E-04
 ITER:  9   CCSD    CORR. ENERGY:  -0.2679204883   CONV.:  5.6158E-06
 ITER: 10   CCSD    CORR. ENERGY:  -0.2679216866   CONV.:  1.8065E-06
 ITER: 11   CCSD    CORR. ENERGY:  -0.2679217119   CONV.:  6.2323E-07
 ITER: 12   CCSD    CORR. ENERGY:  -0.2679216991   CONV.:  4.3289E-07
 ITER: 13   CCSD    CORR. ENERGY:  -0.2679216849   CONV.:  1.6443E-07
 ITER: 14   CCSD    CORR. ENERGY:  -0.2679216756   CONV.:  5.2708E-08
 ITER: 15   CCSD    CORR. ENERGY:  -0.2679216721   CONV.:  5.2708E-08

     THE    CCSD     ITERATIONS HAVE CONVERGED

    MBPT(2) CORRELATION ENERGY:  -0.2421503385
    CCSD    CORRELATION ENERGY:  -0.2679216721

 T1 DIAGNOSTIC        =     0.01228231
 NORM OF THE T1 VECTOR=     0.04254716
 NORM OF THE T2 VECTOR=     0.31202214

 THE FIVE LARGEST T1 AMPLITUDES ARE:
 T1 AMPLITUDE IS -0.035825 FOR I=   8 -> A=  17
 T1 AMPLITUDE IS  0.011859 FOR I=   8 -> A=  25
 T1 AMPLITUDE IS  0.010662 FOR I=   5 -> A=  15
 T1 AMPLITUDE IS  0.006955 FOR I=   5 -> A=  23
 T1 AMPLITUDE IS  0.006085 FOR I=   7 -> A=  13

 THE FIVE LARGEST SPIN-UNIQUE T2 AMPLITUDES ARE:
 T2 AMPLITUDE IS -0.173679 FOR I,J=   8   8 -> A,B=   9   9
 T2 AMPLITUDE IS  0.043195 FOR I,J=   8   8 -> A,B=   9  19
 T2 AMPLITUDE IS -0.034108 FOR I,J=   6   8 -> A,B=  14   9
 T2 AMPLITUDE IS -0.025714 FOR I,J=   6   8 -> A,B=  18   9
 T2 AMPLITUDE IS -0.022731 FOR I,J=   8   8 -> A,B=  17  17
 PRINTED T2(I-ALPHA,J-BETA -> A-ALPHA,B-BETA) VALUES
 EQUAL   T2(J-ALPHA,I-BETA -> B-ALPHA,A-BETA) AMPLITUDES.

 ....... DONE WITH CC AMPLITUDE ITERATIONS .......
 CPU     0: STEP CPU TIME=     6.06 TOTAL CPU TIME=       19.6 (    0.3 MIN)
 TOTAL WALL CLOCK TIME=       19.6 SECONDS, CPU UTILIZATION IS 100.00%

 RUNNING THE DISTRIBUTED DATA, PARALLEL TRIPLES CORRECTION...

   REPLICATED MEMORY REQUIRED FOR TRIPLES IS         1120 WORDS.
[...]


      ***** EQUILIBRIUM GEOMETRY LOCATED *****
 COORDINATES OF SYMMETRY UNIQUE ATOMS (ANGS)
   ATOM   CHARGE       X              Y              Z
 ------------------------------------------------------------
 CARBON      6.0   0.0000000000   0.0000000000   0.6719175332
 HYDROGEN    1.0   0.0000000000   0.9264495427   1.2456676126
 COORDINATES OF ALL ATOMS ARE (ANGS)
   ATOM   CHARGE       X              Y              Z
 ------------------------------------------------------------
 CARBON      6.0   0.0000000000   0.0000000000  -0.6719175332
 CARBON      6.0   0.0000000000   0.0000000000   0.6719175332
 HYDROGEN    1.0   0.0000000000  -0.9264495427   1.2456676126
 HYDROGEN    1.0   0.0000000000   0.9264495427  -1.2456676126
 HYDROGEN    1.0   0.0000000000  -0.9264495427  -1.2456676126
 HYDROGEN    1.0   0.0000000000   0.9264495427   1.2456676126

          INTERNUCLEAR DISTANCES (ANGS.)
          ------------------------------

                1 CARB       2 CARB       3 HYDR       4 HYDR       5 HYDR  

   1 CARB    0.0000000    1.3438351 *  2.1296576 *  1.0897238 *  1.0897238 *
   2 CARB    1.3438351 *  0.0000000    1.0897238 *  2.1296576 *  2.1296576 *
   3 HYDR    2.1296576 *  1.0897238 *  0.0000000    3.1048327    2.4913352 *
   4 HYDR    1.0897238 *  2.1296576 *  3.1048327    0.0000000    1.8528991 *
   5 HYDR    1.0897238 *  2.1296576 *  2.4913352 *  1.8528991 *  0.0000000  
   6 HYDR    2.1296576 *  1.0897238 *  1.8528991 *  2.4913352 *  3.1048327  

                6 HYDR  

   1 CARB    2.1296576 *
   2 CARB    1.0897238 *
   3 HYDR    1.8528991 *
   4 HYDR    2.4913352 *
   5 HYDR    3.1048327  
   6 HYDR    0.0000000  

  * ... LESS THAN  3.000


          NUCLEAR ENERGY    =       33.1310879140
          ELECTRONIC ENERGY =     -111.1609813546
          TOTAL ENERGY      =      -78.3194324916

          ------------------
          MOLECULAR ORBITALS
          ------------------

                      1          2          3          4          5
                  -11.2303   -11.2288    -1.0214    -0.7887    -0.6338
                     AG         B1U        AG         B1U        B2U 
    1  C  1  S    0.704203   0.704550   0.157158  -0.120816   0.000000
    2  C  1  S    0.016498   0.017765  -0.301989   0.238117   0.000000
    3  C  1  X    0.000000   0.000000   0.000000   0.000000   0.000000
    4  C  1  Y    0.000000   0.000000   0.000000   0.000000  -0.320029
    5  C  1  Z   -0.000266   0.000479  -0.103363  -0.166936   0.000000
    6  C  1  S   -0.006649  -0.012851  -0.236341   0.246142   0.000000
    7  C  1  X    0.000000   0.000000   0.000000   0.000000   0.000000
    8  C  1  Y    0.000000   0.000000   0.000000   0.000000  -0.130315
    9  C  1  Z    0.000877  -0.001794  -0.006298  -0.066252   0.000000
   10  C  1 XX   -0.000199  -0.000569   0.015928  -0.015025   0.000000
   11  C  1 YY    0.000058  -0.000082  -0.001646   0.019619   0.000000
   12  C  1 ZZ    0.000141   0.000651  -0.014282  -0.004595   0.000000
   13  C  1 XY    0.000000   0.000000   0.000000   0.000000   0.000000
   14  C  1 XZ    0.000000   0.000000   0.000000   0.000000   0.000000
   15  C  1 YZ    0.000000   0.000000   0.000000   0.000000   0.013644
   16  C  2  S    0.704203  -0.704550   0.157158   0.120816   0.000000
   17  C  2  S    0.016498  -0.017765  -0.301989  -0.238117   0.000000
   18  C  2  X    0.000000   0.000000   0.000000   0.000000   0.000000
   19  C  2  Y    0.000000   0.000000   0.000000   0.000000  -0.320029
   20  C  2  Z    0.000266   0.000479   0.103363  -0.166936   0.000000
   21  C  2  S   -0.006649   0.012851  -0.236341  -0.246142   0.000000
   22  C  2  X    0.000000   0.000000   0.000000   0.000000   0.000000
   23  C  2  Y    0.000000   0.000000   0.000000   0.000000  -0.130315
   24  C  2  Z   -0.000877  -0.001794   0.006298  -0.066252   0.000000
   25  C  2 XX   -0.000199   0.000569   0.015928   0.015025   0.000000
   26  C  2 YY    0.000058   0.000082  -0.001646  -0.019619   0.000000
   27  C  2 ZZ    0.000141  -0.000651  -0.014282   0.004595   0.000000
   28  C  2 XY    0.000000   0.000000   0.000000   0.000000   0.000000
   29  C  2 XZ    0.000000   0.000000   0.000000   0.000000   0.000000
   30  C  2 YZ    0.000000   0.000000   0.000000   0.000000  -0.013644
   31  H  3  S   -0.000303   0.000133  -0.082990  -0.145740   0.157524
   32  H  3  S    0.001898  -0.001866  -0.015728  -0.065361   0.109858
   33  H  4  S   -0.000303  -0.000133  -0.082990   0.145740  -0.157524
   34  H  4  S    0.001898   0.001866  -0.015728   0.065361  -0.109858
   35  H  5  S   -0.000303  -0.000133  -0.082990   0.145740   0.157524
   36  H  5  S    0.001898   0.001866  -0.015728   0.065361   0.109858
   37  H  6  S   -0.000303   0.000133  -0.082990  -0.145740  -0.157524
   38  H  6  S    0.001898  -0.001866  -0.015728  -0.065361  -0.109858

                      6          7          8          9         10
                   -0.5786    -0.5044    -0.3666     0.1754     0.2636
                     AG         B3G        B3U        B2G        AG  
    1  C  1  S    0.010819   0.000000   0.000000   0.000000  -0.077203
    2  C  1  S   -0.022710   0.000000   0.000000   0.000000   0.076385
    3  C  1  X    0.000000   0.000000  -0.373196   0.342956   0.000000
    4  C  1  Y    0.000000   0.302831   0.000000   0.000000   0.000000
    5  C  1  Z   -0.405351   0.000000   0.000000   0.000000  -0.147544
    6  C  1  S    0.018140   0.000000   0.000000   0.000000   1.460100
    7  C  1  X    0.000000   0.000000  -0.308595   0.730014   0.000000
    8  C  1  Y    0.000000   0.196611   0.000000   0.000000   0.000000
    9  C  1  Z   -0.157216   0.000000   0.000000   0.000000  -0.638840
   10  C  1 XX   -0.006023   0.000000   0.000000   0.000000  -0.000673
   11  C  1 YY    0.021704   0.000000   0.000000   0.000000  -0.006874
   12  C  1 ZZ   -0.015681   0.000000   0.000000   0.000000   0.007546
   13  C  1 XY    0.000000   0.000000   0.000000   0.000000   0.000000
   14  C  1 XZ    0.000000   0.000000  -0.025006  -0.023722   0.000000
   15  C  1 YZ    0.000000  -0.036637   0.000000   0.000000   0.000000
   16  C  2  S    0.010819   0.000000   0.000000   0.000000  -0.077203
   17  C  2  S   -0.022710   0.000000   0.000000   0.000000   0.076385
   18  C  2  X    0.000000   0.000000  -0.373196  -0.342956   0.000000
   19  C  2  Y    0.000000  -0.302831   0.000000   0.000000   0.000000
   20  C  2  Z    0.405351   0.000000   0.000000   0.000000   0.147544
   21  C  2  S    0.018140   0.000000   0.000000   0.000000   1.460100
   22  C  2  X    0.000000   0.000000  -0.308595  -0.730014   0.000000
   23  C  2  Y    0.000000  -0.196611   0.000000   0.000000   0.000000
   24  C  2  Z    0.157216   0.000000   0.000000   0.000000   0.638840
   25  C  2 XX   -0.006023   0.000000   0.000000   0.000000  -0.000673
   26  C  2 YY    0.021704   0.000000   0.000000   0.000000  -0.006874
   27  C  2 ZZ   -0.015681   0.000000   0.000000   0.000000   0.007546
   28  C  2 XY    0.000000   0.000000   0.000000   0.000000   0.000000
   29  C  2 XZ    0.000000   0.000000   0.025006  -0.023722   0.000000
   30  C  2 YZ    0.000000  -0.036637   0.000000   0.000000   0.000000
   31  H  3  S    0.124811   0.188275   0.000000   0.000000  -0.015485
   32  H  3  S    0.099643   0.155411   0.000000   0.000000  -1.021704
   33  H  4  S    0.124811   0.188275   0.000000   0.000000  -0.015485
   34  H  4  S    0.099643   0.155411   0.000000   0.000000  -1.021704
   35  H  5  S    0.124811  -0.188275   0.000000   0.000000  -0.015485
   36  H  5  S    0.099643  -0.155411   0.000000   0.000000  -1.021704
   37  H  6  S    0.124811  -0.188275   0.000000   0.000000  -0.015485
   38  H  6  S    0.099643  -0.155411   0.000000   0.000000  -1.021704

                     11         12         13         14         15
                    0.2915     0.3050     0.3891     0.4869     0.6740
                     B2U        B1U        B3G        B1U        AG  
    1  C  1  S    0.000000  -0.108102   0.000000  -0.069339  -0.017920
    2  C  1  S    0.000000   0.100749   0.000000   0.009538  -0.223654
    3  C  1  X    0.000000   0.000000   0.000000   0.000000   0.000000
    4  C  1  Y    0.253509   0.000000   0.251532   0.000000   0.000000
    5  C  1  Z    0.000000  -0.096179   0.000000   0.138311  -0.560804
    6  C  1  S    0.000000   1.872643   0.000000   2.980146  -0.227923
    7  C  1  X    0.000000   0.000000   0.000000   0.000000   0.000000
    8  C  1  Y    0.795136   0.000000   1.838865   0.000000   0.000000
    9  C  1  Z    0.000000  -0.160443   0.000000   2.924805   1.032649
   10  C  1 XX    0.000000  -0.006271   0.000000  -0.014634   0.015758
   11  C  1 YY    0.000000   0.005185   0.000000   0.019510   0.051155
   12  C  1 ZZ    0.000000   0.001086   0.000000  -0.004876  -0.066914
   13  C  1 XY    0.000000   0.000000   0.000000   0.000000   0.000000
   14  C  1 XZ    0.000000   0.000000   0.000000   0.000000   0.000000
   15  C  1 YZ    0.022446   0.000000  -0.017727   0.000000   0.000000
   16  C  2  S    0.000000   0.108102   0.000000   0.069339  -0.017920
   17  C  2  S    0.000000  -0.100749   0.000000  -0.009538  -0.223654
   18  C  2  X    0.000000   0.000000   0.000000   0.000000   0.000000
   19  C  2  Y    0.253509   0.000000  -0.251532   0.000000   0.000000
   20  C  2  Z    0.000000  -0.096179   0.000000   0.138311   0.560804
   21  C  2  S    0.000000  -1.872643   0.000000  -2.980146  -0.227923
   22  C  2  X    0.000000   0.000000   0.000000   0.000000   0.000000
   23  C  2  Y    0.795136   0.000000  -1.838865   0.000000   0.000000
   24  C  2  Z    0.000000  -0.160443   0.000000   2.924805  -1.032649
   25  C  2 XX    0.000000   0.006271   0.000000   0.014634   0.015758
   26  C  2 YY    0.000000  -0.005185   0.000000  -0.019510   0.051155
   27  C  2 ZZ    0.000000  -0.001086   0.000000   0.004876  -0.066914
   28  C  2 XY    0.000000   0.000000   0.000000   0.000000   0.000000
   29  C  2 XZ    0.000000   0.000000   0.000000   0.000000   0.000000
   30  C  2 YZ   -0.022446   0.000000  -0.017727   0.000000   0.000000
   31  H  3  S    0.043665   0.020369   0.039200  -0.077238   0.095222
   32  H  3  S    1.075243   1.054460  -1.589228  -0.568505   0.073701
   33  H  4  S   -0.043665  -0.020369   0.039200   0.077238   0.095222
   34  H  4  S   -1.075243  -1.054460  -1.589228   0.568505   0.073701
   35  H  5  S    0.043665  -0.020369  -0.039200   0.077238   0.095222
   36  H  5  S    1.075243  -1.054460   1.589228   0.568505   0.073701
   37  H  6  S   -0.043665   0.020369  -0.039200  -0.077238   0.095222
   38  H  6  S   -1.075243   1.054460   1.589228  -0.568505   0.073701

                     16         17         18
                    0.7638     0.7790     0.8631
                     B2U        B3U        AG  
    1  C  1  S    0.000000   0.000000  -0.023412
    2  C  1  S    0.000000   0.000000  -0.877471
    3  C  1  X    0.000000   0.741537   0.000000
    4  C  1  Y    0.402399   0.000000   0.000000
    5  C  1  Z    0.000000   0.000000  -0.030717
    6  C  1  S    0.000000   0.000000   1.421069
    7  C  1  X    0.000000  -0.639781   0.000000
    8  C  1  Y   -0.752424   0.000000   0.000000
    9  C  1  Z    0.000000   0.000000  -0.342120
   10  C  1 XX    0.000000   0.000000   0.116264
   11  C  1 YY    0.000000   0.000000  -0.084548
   12  C  1 ZZ    0.000000   0.000000  -0.031716
   13  C  1 XY    0.000000   0.000000   0.000000
   14  C  1 XZ    0.000000   0.068157   0.000000
   15  C  1 YZ   -0.094638   0.000000   0.000000
   16  C  2  S    0.000000   0.000000  -0.023412
   17  C  2  S    0.000000   0.000000  -0.877471
   18  C  2  X    0.000000   0.741537   0.000000
   19  C  2  Y    0.402399   0.000000   0.000000
   20  C  2  Z    0.000000   0.000000   0.030717
   21  C  2  S    0.000000   0.000000   1.421069
   22  C  2  X    0.000000  -0.639781   0.000000
   23  C  2  Y   -0.752424   0.000000   0.000000
   24  C  2  Z    0.000000   0.000000   0.342120
   25  C  2 XX    0.000000   0.000000   0.116264
   26  C  2 YY    0.000000   0.000000  -0.084548
   27  C  2 ZZ    0.000000   0.000000  -0.031716
   28  C  2 XY    0.000000   0.000000   0.000000
   29  C  2 XZ    0.000000  -0.068157   0.000000
   30  C  2 YZ    0.094638   0.000000   0.000000
   31  H  3  S   -0.389013   0.000000  -0.402384
   32  H  3  S   -0.041718   0.000000  -0.206193
   33  H  4  S    0.389013   0.000000  -0.402384
   34  H  4  S    0.041718   0.000000  -0.206193
   35  H  5  S   -0.389013   0.000000  -0.402384
   36  H  5  S   -0.041718   0.000000  -0.206193
   37  H  6  S    0.389013   0.000000  -0.402384
   38  H  6  S    0.041718   0.000000  -0.206193

     ----------------------------------------------------------------
     PROPERTY VALUES FOR THE RHF   SELF-CONSISTENT FIELD WAVEFUNCTION
     ----------------------------------------------------------------

          ---------------------------------------
          MULLIKEN AND LOWDIN POPULATION ANALYSES
          ---------------------------------------

               ----- POPULATIONS IN EACH AO -----
                             MULLIKEN      LOWDIN
              1  C  1  S      1.99756     1.98200
              2  C  1  S      0.67034     0.35966
              3  C  1  X      0.50166     0.46908
              4  C  1  Y      0.70666     0.63021
              5  C  1  Z      0.75027     0.66780
              6  C  1  S      0.59872     0.34147
              7  C  1  X      0.49076     0.51976
              8  C  1  Y      0.36658     0.47371
              9  C  1  Z      0.23584     0.37988
             10  C  1 XX      0.00818     0.10150
             11  C  1 YY      0.00703     0.17032
             12  C  1 ZZ      0.00000     0.18338
             13  C  1 XY      0.00757     0.00000
             14  C  1 XZ      0.01876     0.01116
             15  C  1 YZ      0.00000     0.03440
             16  C  2  S      1.99756     1.98200
             17  C  2  S      0.67034     0.35966
             18  C  2  X      0.50166     0.46908
             19  C  2  Y      0.70666     0.63021
             20  C  2  Z      0.75027     0.66780
             21  C  2  S      0.59872     0.34147
             22  C  2  X      0.49076     0.51976
             23  C  2  Y      0.36658     0.47371
             24  C  2  Z      0.23584     0.37988
             25  C  2 XX      0.00818     0.10150
             26  C  2 YY      0.00703     0.17032
             27  C  2 ZZ      0.00000     0.18338
             28  C  2 XY      0.00757     0.00000
             29  C  2 XZ      0.01876     0.01116
             30  C  2 YZ      0.00000     0.03440
             31  H  3  S      0.52331     0.48222
             32  H  3  S      0.29672     0.35561
             33  H  4  S      0.52331     0.48222
             34  H  4  S      0.29672     0.35561
             35  H  5  S      0.52331     0.48222
             36  H  5  S      0.29672     0.35561
             37  H  6  S      0.52331     0.48222
             38  H  6  S      0.29672     0.35561

          ----- MULLIKEN ATOMIC OVERLAP POPULATIONS -----
          (OFF-DIAGONAL ELEMENTS NEED TO BE MULTIPLIED BY 2)

             1           2           3           4           5

    1    5.0145824
    2    0.6327949   5.0145824
    3   -0.0384783   0.3947568   0.4931650
    4    0.3947568  -0.0384783   0.0027142   0.4931650
    5    0.3947568  -0.0384783  -0.0031976  -0.0289272   0.4931650
    6   -0.0384783   0.3947568  -0.0289272  -0.0031976   0.0027142

             6

    6    0.4931650

          TOTAL MULLIKEN AND LOWDIN ATOMIC POPULATIONS
       ATOM         MULL.POP.    CHARGE          LOW.POP.     CHARGE
    1 CARBON        6.359934   -0.359934         6.324328   -0.324328
    2 CARBON        6.359934   -0.359934         6.324328   -0.324328
    3 HYDROGEN      0.820033    0.179967         0.837836    0.162164
    4 HYDROGEN      0.820033    0.179967         0.837836    0.162164
    5 HYDROGEN      0.820033    0.179967         0.837836    0.162164
    6 HYDROGEN      0.820033    0.179967         0.837836    0.162164

          MULLIKEN SPHERICAL HARMONIC POPULATIONS
       ATOM           S       P       D      F      G      H      I    TOTAL
    1 CARBON        3.27    3.05    0.04   0.00   0.00   0.00   0.00    6.36
    2 CARBON        3.27    3.05    0.04   0.00   0.00   0.00   0.00    6.36
    3 HYDROGEN      0.82    0.00    0.00   0.00   0.00   0.00   0.00    0.82
    4 HYDROGEN      0.82    0.00    0.00   0.00   0.00   0.00   0.00    0.82
    5 HYDROGEN      0.82    0.00    0.00   0.00   0.00   0.00   0.00    0.82
    6 HYDROGEN      0.82    0.00    0.00   0.00   0.00   0.00   0.00    0.82

          -------------------------------
          BOND ORDER AND VALENCE ANALYSIS     BOND ORDER THRESHOLD=0.050
          -------------------------------

                   BOND                       BOND                       BOND
  ATOM PAIR DIST  ORDER      ATOM PAIR DIST  ORDER      ATOM PAIR DIST  ORDER
    1   2  1.344  1.975        1   4  1.090  0.954        1   5  1.090  0.954
    2   3  1.090  0.954        2   6  1.090  0.954

                       TOTAL       BONDED        FREE
      ATOM            VALENCE     VALENCE     VALENCE
    1 CARBON            3.853       3.853       0.000
    2 CARBON            3.853       3.853       0.000
    3 HYDROGEN          0.936       0.936       0.000
    4 HYDROGEN          0.936       0.936       0.000
    5 HYDROGEN          0.936       0.936       0.000
    6 HYDROGEN          0.936       0.936       0.000

          ---------------------
          ELECTROSTATIC MOMENTS
          ---------------------

 POINT   1           X           Y           Z (BOHR)    CHARGE
                 0.000000    0.000000    0.000000        0.00 (A.U.)
         DX          DY          DZ         /D/  (DEBYE)
     0.000000    0.000000    0.000000    0.000000
 ...... END OF PROPERTY EVALUATION ......
 CPU     0: STEP CPU TIME=     0.06 TOTAL CPU TIME=      489.3 (    8.2 MIN)
 TOTAL WALL CLOCK TIME=      489.3 SECONDS, CPU UTILIZATION IS 100.00%
  $VIB   
          IVIB=   0 IATOM=   0 ICOORD=   0 E=      -78.3194324916
  0.000000000E+00 0.000000000E+00 4.314689190E-05 0.000000000E+00 0.000000000E+00
 -4.314689190E-05 0.000000000E+00-2.191527138E-05 1.422522296E-05 0.000000000E+00
  2.191527138E-05-1.422522296E-05 0.000000000E+00-2.191527138E-05-1.422522296E-05
  0.000000000E+00 2.191527138E-05 1.422522296E-05
 -3.738159898E-17-5.643854273E-16-1.128770855E-15
 ......END OF GEOMETRY SEARCH......
 CPU     0: STEP CPU TIME=     0.00 TOTAL CPU TIME=      489.3 (    8.2 MIN)
 TOTAL WALL CLOCK TIME=      489.3 SECONDS, CPU UTILIZATION IS 100.00%
                   580000  WORDS OF DYNAMIC MEMORY USED
 EXECUTION OF GAMESS TERMINATED NORMALLY Fri Aug 23 15:11:23 2019
 DDI: 1101688 bytes (1.1 MB / 0 MWords) used by master data server.

 ----------------------------------------
 CPU timing information for all processes
 ========================================
 0: 222.051823 + 18.751320 = 240.803143
 1: 250.475205 + 20.342530 = 270.817735
 2: 235.499109 + 17.128909 = 252.628018
 3: 232.535090 + 18.018115 = 250.553205
 4: 198.105669 + 19.406524 = 217.512193
 5: 166.718268 + 16.177303 = 182.895571
 6: 167.810275 + 14.991696 = 182.801971
 7: 145.642533 + 15.475299 = 161.117832
 ----------------------------------------
           Disk usage (in bytes)       
 ========================================
 ----------------------------------------
            Local date and time          
 ========================================
23.08.2019 - 15:11:29.98                          
